 Entering Gaussian System, Link 0=/usr/local/apps/chemistry/gaussian/g03.c02/g03/g03
 Input=input.com
 Output=nad.out
 Initial command:
 /usr/local/apps/chemistry/gaussian/g03.c02/g03/l1.exe /scratch/batch/cu12.338256.0/Gau-2940970.inp -scrdir=/scratch/batch/cu12.338256.0/
 Entering Link 1 = /usr/local/apps/chemistry/gaussian/g03.c02/g03/l1.exe PID=   2523244.
  
 Copyright (c) 1988,1990,1992,1993,1995,1998,2003,2004, Gaussian, Inc.
                  All Rights Reserved.
  
 This is the Gaussian(R) 03 program.  It is based on the
 the Gaussian(R) 98 system (copyright 1998, Gaussian, Inc.),
 the Gaussian(R) 94 system (copyright 1995, Gaussian, Inc.),
 the Gaussian 92(TM) system (copyright 1992, Gaussian, Inc.),
 the Gaussian 90(TM) system (copyright 1990, Gaussian, Inc.),
 the Gaussian 88(TM) system (copyright 1988, Gaussian, Inc.),
 the Gaussian 86(TM) system (copyright 1986, Carnegie Mellon
 University), and the Gaussian 82(TM) system (copyright 1983,
 Carnegie Mellon University). Gaussian is a federally registered
 trademark of Gaussian, Inc.
  
 This software contains proprietary and confidential information,
 including trade secrets, belonging to Gaussian, Inc.
  
 This software is provided under written license and may be
 used, copied, transmitted, or stored only in accord with that
 written license.
  
 The following legend is applicable only to US Government
 contracts under FAR:
  
                    RESTRICTED RIGHTS LEGEND
  
 Use, reproduction and disclosure by the US Government is
 subject to restrictions as set forth in subparagraphs (a)
 and (c) of the Commercial Computer Software - Restricted
 Rights clause in FAR 52.227-19.
  
 Gaussian, Inc.
 340 Quinnipiac St., Bldg. 40, Wallingford CT 06492
  
  
 ---------------------------------------------------------------
 Warning -- This program may not be used in any manner that
 competes with the business of Gaussian, Inc. or will provide
 assistance to any competitor of Gaussian, Inc.  The licensee
 of this program is prohibited from giving any competitor of
 Gaussian, Inc. access to this program.  By using this program,
 the user acknowledges that Gaussian, Inc. is engaged in the
 business of creating and licensing software in the field of
 computational chemistry and represents and warrants to the
 licensee that it is not a competitor of Gaussian, Inc. and that
 it will not use this program in any manner prohibited above.
 ---------------------------------------------------------------
  

 Cite this work as:
 Gaussian 03, Revision C.02,
 M. J. Frisch, G. W. Trucks, H. B. Schlegel, G. E. Scuseria, 
 M. A. Robb, J. R. Cheeseman, J. A. Montgomery, Jr., T. Vreven, 
 K. N. Kudin, J. C. Burant, J. M. Millam, S. S. Iyengar, J. Tomasi, 
 V. Barone, B. Mennucci, M. Cossi, G. Scalmani, N. Rega, 
 G. A. Petersson, H. Nakatsuji, M. Hada, M. Ehara, K. Toyota, 
 R. Fukuda, J. Hasegawa, M. Ishida, T. Nakajima, Y. Honda, O. Kitao, 
 H. Nakai, M. Klene, X. Li, J. E. Knox, H. P. Hratchian, J. B. Cross, 
 C. Adamo, J. Jaramillo, R. Gomperts, R. E. Stratmann, O. Yazyev, 
 A. J. Austin, R. Cammi, C. Pomelli, J. W. Ochterski, P. Y. Ayala, 
 K. Morokuma, G. A. Voth, P. Salvador, J. J. Dannenberg, 
 V. G. Zakrzewski, S. Dapprich, A. D. Daniels, M. C. Strain, 
 O. Farkas, D. K. Malick, A. D. Rabuck, K. Raghavachari, 
 J. B. Foresman, J. V. Ortiz, Q. Cui, A. G. Baboul, S. Clifford, 
 J. Cioslowski, B. B. Stefanov, G. Liu, A. Liashenko, P. Piskorz, 
 I. Komaromi, R. L. Martin, D. J. Fox, T. Keith, M. A. Al-Laham, 
 C. Y. Peng, A. Nanayakkara, M. Challacombe, P. M. W. Gill, 
 B. Johnson, W. Chen, M. W. Wong, C. Gonzalez, and J. A. Pople, 
 Gaussian, Inc., Wallingford CT, 2004.
 
 ******************************************
 Gaussian 03:  IBM64-G03RevC.02 12-Jun-2004
                13-Jul-2005 
 ******************************************
 %chk=nad
 ------------------------------------------------------------
 #HF/6-31G* SCF=tight Test Pop=MK iop(6/33=2) iop(6/42=6) opt
 ------------------------------------------------------------
 1/18=20,38=1/1,3;
 2/9=110,17=6,18=5,40=1/2;
 3/5=1,6=6,7=1,11=9,16=1,25=1,30=1/1,2,3;
 4//1;
 5/5=2,32=2,38=5/2;
 6/7=2,8=2,9=2,10=2,15=8,20=1,28=1,33=2,42=6/1,2;
 7//1,2,3,16;
 1/18=20/3(1);
 99//99;
 2/9=110/2;
 3/5=1,6=6,7=1,11=9,16=1,25=1,30=1/1,2,3;
 4/5=5,16=3/1;
 5/5=2,32=2,38=5/2;
 7//1,2,3,16;
 1/18=20/3(-5);
 2/9=110/2;
 6/7=2,8=2,9=2,10=2,15=8,19=2,20=1,28=1,33=2,42=6/1,2;
 99/9=1/99;
 ---------------------
 remark line goes here
 ---------------------
 Symbolic Z-matrix:
 Charge = -1 Multiplicity = 1
 15                    1.10381  -0.3592   -1.44565 
 8                     2.50246  -0.2948   -2.20975 
 15                    3.85306   0.61844  -2.0934 
 8                     4.45671   0.01726  -0.67712 
 6                     5.59096  -0.7859   -0.58583 
 6                     5.36487  -1.8837    0.44419 
 6                     4.30149  -2.93486   0.10062 
 6                     3.0555   -2.26337   0.6506 
 6                     3.60451  -1.65568   1.93524 
 7                     2.80886  -0.44908   2.33006 
 6                     1.68111  -0.66063   3.02507 
 6                     0.87863   0.3782    3.39427 
 6                     1.24363   1.66805   3.02142 
 6                     2.37312   1.86684   2.25622 
 6                     2.73325   3.26949   1.83878 
 7                     3.36227   3.40198   0.67101 
 8                     2.45988   4.17898   2.58488 
 6                     3.13835   0.76973   1.91144 
 8                     4.90952  -1.3096    1.68564 
 8                     1.92982  -3.02588   0.85811 
 8                     4.52929  -4.12714   0.80859 
 8                     4.75344   0.21135  -3.17273 
 8                     3.48628   2.01234  -1.79008 
 8                     0.14539   0.37029  -2.5153 
 6                    -1.21917   0.06939  -2.62049 
 6                    -2.05582   1.12551  -1.9144 
 6                    -1.9887    1.1705   -0.38176 
 6                    -3.35944   1.75395  -0.04206 
 6                    -4.25472   1.16978  -1.13545 
 7                    -4.97627  -0.03064  -0.71255 
 6                    -6.12365  -0.06203   0.02001 
 7                    -6.8209    0.95793   0.51475 
 6                    -7.88943   0.55491   1.15798 
 7                    -8.32081  -0.6867    1.35941 
 6                    -7.60421  -1.68728   0.86574 
 7                    -8.01212  -2.9574    1.09317 
 6                    -6.44194  -1.39664   0.14874 
 7                    -5.51527  -2.1845   -0.5013 
 6                    -4.67945  -1.34098  -0.99053 
 8                    -3.42223   0.82268  -2.1917 
 8                    -3.34009   3.14045  -0.20804 
 8                    -1.00828   1.99325   0.14514 
 8                     1.15584   0.45732  -0.19849 
 8                     0.69505  -1.77877  -1.29939 
 1                     6.4299   -0.17783  -0.25974 
 1                     5.84486  -1.21928  -1.54416 
 1                     6.31237  -2.36489   0.65678 
 1                     4.22063  -3.11575  -0.96452 
 1                     2.85033  -1.4424   -0.00202 
 1                     3.53273  -2.33307   2.77455 
 1                     1.45955  -1.68135   3.26004 
 1                    -0.01643   0.18739   3.95283 
 1                     0.6504    2.5156    3.30468 
 1                     3.54005   4.34212   0.39203 
 1                     3.3169    2.7347   -0.09332 
 1                     4.01409   0.83986   1.30593 
 1                     1.31534  -2.78598   0.15285 
 1                     5.20456  -4.62911   0.37506 
 1                    -1.42803  -0.91409  -2.22055 
 1                    -1.47381   0.07042  -3.67256 
 1                    -1.81379   2.10527  -2.30677 
 1                    -1.90802   0.15762   0.00948 
 1                    -3.70533   1.4902    0.95103 
 1                    -4.9913    1.89613  -1.4428 
 1                    -8.50675   1.32743   1.58085 
 1                    -7.60971  -3.68113   0.54207 
 1                    -8.94838  -3.08096   1.40438 
 1                    -3.82519  -1.59515  -1.57858 
 1                    -2.47252   3.44102   0.04182 
 1                    -0.14363   1.57      0.02774 
 

 GradGradGradGradGradGradGradGradGradGradGradGradGradGradGradGradGradGrad
 Berny optimization.
 Initialization pass.
                           ----------------------------
                           !    Initial Parameters    !
                           ! (Angstroms and Degrees)  !
 --------------------------                            --------------------------
 ! Name  Definition              Value          Derivative Info.                !
 --------------------------------------------------------------------------------
 ! R1    R(1,2)                  1.5951         estimate D2E/DX2                !
 ! R2    R(1,24)                 1.6109         estimate D2E/DX2                !
 ! R3    R(1,43)                 1.4916         estimate D2E/DX2                !
 ! R4    R(1,44)                 1.4845         estimate D2E/DX2                !
 ! R5    R(2,3)                  1.6345         estimate D2E/DX2                !
 ! R6    R(3,4)                  1.6528         estimate D2E/DX2                !
 ! R7    R(3,22)                 1.4633         estimate D2E/DX2                !
 ! R8    R(3,23)                 1.4729         estimate D2E/DX2                !
 ! R9    R(4,5)                  1.3928         estimate D2E/DX2                !
 ! R10   R(5,6)                  1.5222         estimate D2E/DX2                !
 ! R11   R(5,45)                 1.0862         estimate D2E/DX2                !
 ! R12   R(5,46)                 1.082          estimate D2E/DX2                !
 ! R13   R(6,7)                  1.5342         estimate D2E/DX2                !
 ! R14   R(6,19)                 1.4416         estimate D2E/DX2                !
 ! R15   R(6,47)                 1.0837         estimate D2E/DX2                !
 ! R16   R(7,8)                  1.5185         estimate D2E/DX2                !
 ! R17   R(7,21)                 1.4052         estimate D2E/DX2                !
 ! R18   R(7,48)                 1.0834         estimate D2E/DX2                !
 ! R19   R(8,9)                  1.5235         estimate D2E/DX2                !
 ! R20   R(8,20)                 1.3754         estimate D2E/DX2                !
 ! R21   R(8,49)                 1.0686         estimate D2E/DX2                !
 ! R22   R(9,10)                 1.4983         estimate D2E/DX2                !
 ! R23   R(9,19)                 1.373          estimate D2E/DX2                !
 ! R24   R(9,50)                 1.081          estimate D2E/DX2                !
 ! R25   R(10,11)                1.3415         estimate D2E/DX2                !
 ! R26   R(10,18)                1.3301         estimate D2E/DX2                !
 ! R27   R(11,12)                1.3636         estimate D2E/DX2                !
 ! R28   R(11,51)                1.0706         estimate D2E/DX2                !
 ! R29   R(12,13)                1.3914         estimate D2E/DX2                !
 ! R30   R(12,52)                1.0722         estimate D2E/DX2                !
 ! R31   R(13,14)                1.3787         estimate D2E/DX2                !
 ! R32   R(13,53)                1.0726         estimate D2E/DX2                !
 ! R33   R(14,15)                1.5071         estimate D2E/DX2                !
 ! R34   R(14,18)                1.3813         estimate D2E/DX2                !
 ! R35   R(15,16)                1.333          estimate D2E/DX2                !
 ! R36   R(15,17)                1.2077         estimate D2E/DX2                !
 ! R37   R(16,54)                0.9966         estimate D2E/DX2                !
 ! R38   R(16,55)                1.0156         estimate D2E/DX2                !
 ! R39   R(18,56)                1.067          estimate D2E/DX2                !
 ! R40   R(20,57)                0.9657         estimate D2E/DX2                !
 ! R41   R(21,58)                0.9465         estimate D2E/DX2                !
 ! R42   R(24,25)                1.4013         estimate D2E/DX2                !
 ! R43   R(25,26)                1.5212         estimate D2E/DX2                !
 ! R44   R(25,59)                1.082          estimate D2E/DX2                !
 ! R45   R(25,60)                1.0824         estimate D2E/DX2                !
 ! R46   R(26,27)                1.5348         estimate D2E/DX2                !
 ! R47   R(26,40)                1.4268         estimate D2E/DX2                !
 ! R48   R(26,61)                1.0828         estimate D2E/DX2                !
 ! R49   R(27,28)                1.528          estimate D2E/DX2                !
 ! R50   R(27,42)                1.3841         estimate D2E/DX2                !
 ! R51   R(27,62)                1.0888         estimate D2E/DX2                !
 ! R52   R(28,29)                1.5291         estimate D2E/DX2                !
 ! R53   R(28,41)                1.3965         estimate D2E/DX2                !
 ! R54   R(28,63)                1.0842         estimate D2E/DX2                !
 ! R55   R(29,30)                1.463          estimate D2E/DX2                !
 ! R56   R(29,40)                1.3889         estimate D2E/DX2                !
 ! R57   R(29,64)                1.0792         estimate D2E/DX2                !
 ! R58   R(30,31)                1.3617         estimate D2E/DX2                !
 ! R59   R(30,39)                1.372          estimate D2E/DX2                !
 ! R60   R(31,32)                1.3309         estimate D2E/DX2                !
 ! R61   R(31,37)                1.3781         estimate D2E/DX2                !
 ! R62   R(32,33)                1.3107         estimate D2E/DX2                !
 ! R63   R(33,34)                1.3298         estimate D2E/DX2                !
 ! R64   R(33,65)                1.0755         estimate D2E/DX2                !
 ! R65   R(34,35)                1.326          estimate D2E/DX2                !
 ! R66   R(35,36)                1.3533         estimate D2E/DX2                !
 ! R67   R(35,37)                1.3962         estimate D2E/DX2                !
 ! R68   R(36,66)                0.9947         estimate D2E/DX2                !
 ! R69   R(36,67)                0.9943         estimate D2E/DX2                !
 ! R70   R(37,38)                1.3791         estimate D2E/DX2                !
 ! R71   R(38,39)                1.2843         estimate D2E/DX2                !
 ! R72   R(39,68)                1.0678         estimate D2E/DX2                !
 ! R73   R(41,69)                0.9516         estimate D2E/DX2                !
 ! R74   R(42,70)                0.9698         estimate D2E/DX2                !
 ! R75   R(43,70)                1.7256         estimate D2E/DX2                !
 ! R76   R(44,57)                1.873          estimate D2E/DX2                !
 ! A1    A(2,1,24)             100.6805         estimate D2E/DX2                !
 ! A2    A(2,1,43)             110.356          estimate D2E/DX2                !
 ! A3    A(2,1,44)             109.1027         estimate D2E/DX2                !
 ! A4    A(24,1,43)            109.1513         estimate D2E/DX2                !
 ! A5    A(24,1,44)            109.5516         estimate D2E/DX2                !
 ! A6    A(43,1,44)            116.7887         estimate D2E/DX2                !
 ! A7    A(1,2,3)              135.4801         estimate D2E/DX2                !
 ! A8    A(2,3,4)               99.1818         estimate D2E/DX2                !
 ! A9    A(2,3,22)             107.4861         estimate D2E/DX2                !
 ! A10   A(2,3,23)             109.7329         estimate D2E/DX2                !
 ! A11   A(4,3,22)             107.8262         estimate D2E/DX2                !
 ! A12   A(4,3,23)             104.994          estimate D2E/DX2                !
 ! A13   A(22,3,23)            124.6368         estimate D2E/DX2                !
 ! A14   A(3,4,5)              124.2876         estimate D2E/DX2                !
 ! A15   A(4,5,6)              109.832          estimate D2E/DX2                !
 ! A16   A(4,5,45)             109.0153         estimate D2E/DX2                !
 ! A17   A(4,5,46)             111.3472         estimate D2E/DX2                !
 ! A18   A(6,5,45)             108.3783         estimate D2E/DX2                !
 ! A19   A(6,5,46)             110.2008         estimate D2E/DX2                !
 ! A20   A(45,5,46)            107.9921         estimate D2E/DX2                !
 ! A21   A(5,6,7)              116.4571         estimate D2E/DX2                !
 ! A22   A(5,6,19)             110.0246         estimate D2E/DX2                !
 ! A23   A(5,6,47)             108.8498         estimate D2E/DX2                !
 ! A24   A(7,6,19)             104.2867         estimate D2E/DX2                !
 ! A25   A(7,6,47)             110.2247         estimate D2E/DX2                !
 ! A26   A(19,6,47)            106.5023         estimate D2E/DX2                !
 ! A27   A(6,7,8)              100.6403         estimate D2E/DX2                !
 ! A28   A(6,7,21)             110.8633         estimate D2E/DX2                !
 ! A29   A(6,7,48)             112.7237         estimate D2E/DX2                !
 ! A30   A(8,7,21)             109.01           estimate D2E/DX2                !
 ! A31   A(8,7,48)             111.6337         estimate D2E/DX2                !
 ! A32   A(21,7,48)            111.4544         estimate D2E/DX2                !
 ! A33   A(7,8,9)              100.7255         estimate D2E/DX2                !
 ! A34   A(7,8,20)             118.7546         estimate D2E/DX2                !
 ! A35   A(7,8,49)             106.0255         estimate D2E/DX2                !
 ! A36   A(9,8,20)             112.8841         estimate D2E/DX2                !
 ! A37   A(9,8,49)             106.1232         estimate D2E/DX2                !
 ! A38   A(20,8,49)            111.1561         estimate D2E/DX2                !
 ! A39   A(8,9,10)             110.6138         estimate D2E/DX2                !
 ! A40   A(8,9,19)             106.8441         estimate D2E/DX2                !
 ! A41   A(8,9,50)             112.3847         estimate D2E/DX2                !
 ! A42   A(10,9,19)            110.4669         estimate D2E/DX2                !
 ! A43   A(10,9,50)            105.3553         estimate D2E/DX2                !
 ! A44   A(19,9,50)            111.237          estimate D2E/DX2                !
 ! A45   A(9,10,11)            117.1264         estimate D2E/DX2                !
 ! A46   A(9,10,18)            121.563          estimate D2E/DX2                !
 ! A47   A(11,10,18)           121.0503         estimate D2E/DX2                !
 ! A48   A(10,11,12)           120.9885         estimate D2E/DX2                !
 ! A49   A(10,11,51)           115.9786         estimate D2E/DX2                !
 ! A50   A(12,11,51)           123.0324         estimate D2E/DX2                !
 ! A51   A(11,12,13)           118.6387         estimate D2E/DX2                !
 ! A52   A(11,12,52)           119.7861         estimate D2E/DX2                !
 ! A53   A(13,12,52)           121.573          estimate D2E/DX2                !
 ! A54   A(12,13,14)           119.8217         estimate D2E/DX2                !
 ! A55   A(12,13,53)           121.1082         estimate D2E/DX2                !
 ! A56   A(14,13,53)           119.0612         estimate D2E/DX2                !
 ! A57   A(13,14,15)           118.9259         estimate D2E/DX2                !
 ! A58   A(13,14,18)           118.5456         estimate D2E/DX2                !
 ! A59   A(15,14,18)           122.5261         estimate D2E/DX2                !
 ! A60   A(14,15,16)           116.6097         estimate D2E/DX2                !
 ! A61   A(14,15,17)           118.4032         estimate D2E/DX2                !
 ! A62   A(16,15,17)           124.9709         estimate D2E/DX2                !
 ! A63   A(15,16,54)           115.034          estimate D2E/DX2                !
 ! A64   A(15,16,55)           124.9521         estimate D2E/DX2                !
 ! A65   A(54,16,55)           114.6495         estimate D2E/DX2                !
 ! A66   A(10,18,14)           120.7956         estimate D2E/DX2                !
 ! A67   A(10,18,56)           116.2403         estimate D2E/DX2                !
 ! A68   A(14,18,56)           122.9642         estimate D2E/DX2                !
 ! A69   A(6,19,9)             110.8798         estimate D2E/DX2                !
 ! A70   A(8,20,57)            105.8365         estimate D2E/DX2                !
 ! A71   A(7,21,58)            109.5635         estimate D2E/DX2                !
 ! A72   A(1,24,25)            122.1394         estimate D2E/DX2                !
 ! A73   A(24,25,26)           110.5891         estimate D2E/DX2                !
 ! A74   A(24,25,59)           110.8169         estimate D2E/DX2                !
 ! A75   A(24,25,60)           107.5676         estimate D2E/DX2                !
 ! A76   A(26,25,59)           110.6901         estimate D2E/DX2                !
 ! A77   A(26,25,60)           108.7303         estimate D2E/DX2                !
 ! A78   A(59,25,60)           108.3425         estimate D2E/DX2                !
 ! A79   A(25,26,27)           117.3764         estimate D2E/DX2                !
 ! A80   A(25,26,40)           106.8082         estimate D2E/DX2                !
 ! A81   A(25,26,61)           109.6985         estimate D2E/DX2                !
 ! A82   A(27,26,40)           104.0156         estimate D2E/DX2                !
 ! A83   A(27,26,61)           108.9995         estimate D2E/DX2                !
 ! A84   A(40,26,61)           109.6145         estimate D2E/DX2                !
 ! A85   A(26,27,28)           101.1847         estimate D2E/DX2                !
 ! A86   A(26,27,42)           115.3759         estimate D2E/DX2                !
 ! A87   A(26,27,62)           109.5603         estimate D2E/DX2                !
 ! A88   A(28,27,42)           108.8948         estimate D2E/DX2                !
 ! A89   A(28,27,62)           109.9869         estimate D2E/DX2                !
 ! A90   A(42,27,62)           111.3274         estimate D2E/DX2                !
 ! A91   A(27,28,29)           102.7317         estimate D2E/DX2                !
 ! A92   A(27,28,41)           109.8924         estimate D2E/DX2                !
 ! A93   A(27,28,63)           113.3878         estimate D2E/DX2                !
 ! A94   A(29,28,41)           107.6023         estimate D2E/DX2                !
 ! A95   A(29,28,63)           112.039          estimate D2E/DX2                !
 ! A96   A(41,28,63)           110.7818         estimate D2E/DX2                !
 ! A97   A(28,29,30)           113.2979         estimate D2E/DX2                !
 ! A98   A(28,29,40)           106.7567         estimate D2E/DX2                !
 ! A99   A(28,29,64)           110.2511         estimate D2E/DX2                !
 ! A100  A(30,29,40)           108.0817         estimate D2E/DX2                !
 ! A101  A(30,29,64)           107.3342         estimate D2E/DX2                !
 ! A102  A(40,29,64)           111.1445         estimate D2E/DX2                !
 ! A103  A(29,30,31)           126.1569         estimate D2E/DX2                !
 ! A104  A(29,30,39)           128.1971         estimate D2E/DX2                !
 ! A105  A(31,30,39)           105.6213         estimate D2E/DX2                !
 ! A106  A(30,31,32)           128.5931         estimate D2E/DX2                !
 ! A107  A(30,31,37)           105.4981         estimate D2E/DX2                !
 ! A108  A(32,31,37)           125.9075         estimate D2E/DX2                !
 ! A109  A(31,32,33)           111.9558         estimate D2E/DX2                !
 ! A110  A(32,33,34)           128.7487         estimate D2E/DX2                !
 ! A111  A(32,33,65)           116.1058         estimate D2E/DX2                !
 ! A112  A(34,33,65)           115.1454         estimate D2E/DX2                !
 ! A113  A(33,34,35)           118.2189         estimate D2E/DX2                !
 ! A114  A(34,35,36)           118.8647         estimate D2E/DX2                !
 ! A115  A(34,35,37)           118.9442         estimate D2E/DX2                !
 ! A116  A(36,35,37)           122.1815         estimate D2E/DX2                !
 ! A117  A(35,36,66)           117.8936         estimate D2E/DX2                !
 ! A118  A(35,36,67)           116.9397         estimate D2E/DX2                !
 ! A119  A(66,36,67)           117.6401         estimate D2E/DX2                !
 ! A120  A(31,37,35)           116.2216         estimate D2E/DX2                !
 ! A121  A(31,37,38)           110.7343         estimate D2E/DX2                !
 ! A122  A(35,37,38)           133.0363         estimate D2E/DX2                !
 ! A123  A(37,38,39)           103.9824         estimate D2E/DX2                !
 ! A124  A(30,39,38)           114.161          estimate D2E/DX2                !
 ! A125  A(30,39,68)           120.7966         estimate D2E/DX2                !
 ! A126  A(38,39,68)           125.0368         estimate D2E/DX2                !
 ! A127  A(26,40,29)           111.9117         estimate D2E/DX2                !
 ! A128  A(28,41,69)           107.1595         estimate D2E/DX2                !
 ! A129  A(27,42,70)           109.0278         estimate D2E/DX2                !
 ! D1    D(24,1,2,3)           102.8925         estimate D2E/DX2                !
 ! D2    D(43,1,2,3)           -12.3253         estimate D2E/DX2                !
 ! D3    D(44,1,2,3)          -141.9113         estimate D2E/DX2                !
 ! D4    D(2,1,24,25)          151.0332         estimate D2E/DX2                !
 ! D5    D(43,1,24,25)         -92.8488         estimate D2E/DX2                !
 ! D6    D(44,1,24,25)          36.1741         estimate D2E/DX2                !
 ! D7    D(1,2,3,4)             71.5816         estimate D2E/DX2                !
 ! D8    D(1,2,3,22)          -176.3291         estimate D2E/DX2                !
 ! D9    D(1,2,3,23)           -38.0764         estimate D2E/DX2                !
 ! D10   D(2,3,4,5)            108.9961         estimate D2E/DX2                !
 ! D11   D(22,3,4,5)            -2.8246         estimate D2E/DX2                !
 ! D12   D(23,3,4,5)          -137.5902         estimate D2E/DX2                !
 ! D13   D(3,4,5,6)           -140.1601         estimate D2E/DX2                !
 ! D14   D(3,4,5,45)           101.2326         estimate D2E/DX2                !
 ! D15   D(3,4,5,46)           -17.8109         estimate D2E/DX2                !
 ! D16   D(4,5,6,7)             66.5467         estimate D2E/DX2                !
 ! D17   D(4,5,6,19)           -51.7963         estimate D2E/DX2                !
 ! D18   D(4,5,6,47)          -168.1486         estimate D2E/DX2                !
 ! D19   D(45,5,6,7)          -174.4538         estimate D2E/DX2                !
 ! D20   D(45,5,6,19)           67.2032         estimate D2E/DX2                !
 ! D21   D(45,5,6,47)          -49.1491         estimate D2E/DX2                !
 ! D22   D(46,5,6,7)           -56.4802         estimate D2E/DX2                !
 ! D23   D(46,5,6,19)         -174.8232         estimate D2E/DX2                !
 ! D24   D(46,5,6,47)           68.8245         estimate D2E/DX2                !
 ! D25   D(5,6,7,8)            -87.7706         estimate D2E/DX2                !
 ! D26   D(5,6,7,21)           156.997          estimate D2E/DX2                !
 ! D27   D(5,6,7,48)            31.2661         estimate D2E/DX2                !
 ! D28   D(19,6,7,8)            33.6565         estimate D2E/DX2                !
 ! D29   D(19,6,7,21)          -81.5759         estimate D2E/DX2                !
 ! D30   D(19,6,7,48)          152.6932         estimate D2E/DX2                !
 ! D31   D(47,6,7,8)           147.6226         estimate D2E/DX2                !
 ! D32   D(47,6,7,21)           32.3902         estimate D2E/DX2                !
 ! D33   D(47,6,7,48)          -93.3407         estimate D2E/DX2                !
 ! D34   D(5,6,19,9)           111.6531         estimate D2E/DX2                !
 ! D35   D(7,6,19,9)           -13.9479         estimate D2E/DX2                !
 ! D36   D(47,6,19,9)         -130.5315         estimate D2E/DX2                !
 ! D37   D(6,7,8,9)            -39.3916         estimate D2E/DX2                !
 ! D38   D(6,7,8,20)          -163.1291         estimate D2E/DX2                !
 ! D39   D(6,7,8,49)            71.0023         estimate D2E/DX2                !
 ! D40   D(21,7,8,9)            77.2238         estimate D2E/DX2                !
 ! D41   D(21,7,8,20)          -46.5137         estimate D2E/DX2                !
 ! D42   D(21,7,8,49)         -172.3823         estimate D2E/DX2                !
 ! D43   D(48,7,8,9)          -159.2159         estimate D2E/DX2                !
 ! D44   D(48,7,8,20)           77.0466         estimate D2E/DX2                !
 ! D45   D(48,7,8,49)          -48.8219         estimate D2E/DX2                !
 ! D46   D(6,7,21,58)          -80.3358         estimate D2E/DX2                !
 ! D47   D(8,7,21,58)          169.7688         estimate D2E/DX2                !
 ! D48   D(48,7,21,58)          46.102          estimate D2E/DX2                !
 ! D49   D(7,8,9,10)           153.3298         estimate D2E/DX2                !
 ! D50   D(7,8,9,19)            33.0506         estimate D2E/DX2                !
 ! D51   D(7,8,9,50)           -89.2254         estimate D2E/DX2                !
 ! D52   D(20,8,9,10)          -78.9801         estimate D2E/DX2                !
 ! D53   D(20,8,9,19)          160.7407         estimate D2E/DX2                !
 ! D54   D(20,8,9,50)           38.4647         estimate D2E/DX2                !
 ! D55   D(49,8,9,10)           43.0117         estimate D2E/DX2                !
 ! D56   D(49,8,9,19)          -77.2675         estimate D2E/DX2                !
 ! D57   D(49,8,9,50)          160.4565         estimate D2E/DX2                !
 ! D58   D(7,8,20,57)         -106.2625         estimate D2E/DX2                !
 ! D59   D(9,8,20,57)          136.2195         estimate D2E/DX2                !
 ! D60   D(49,8,20,57)          17.1049         estimate D2E/DX2                !
 ! D61   D(8,9,10,11)           83.8311         estimate D2E/DX2                !
 ! D62   D(8,9,10,18)          -90.3664         estimate D2E/DX2                !
 ! D63   D(19,9,10,11)        -158.0801         estimate D2E/DX2                !
 ! D64   D(19,9,10,18)          27.7223         estimate D2E/DX2                !
 ! D65   D(50,9,10,11)         -37.8526         estimate D2E/DX2                !
 ! D66   D(50,9,10,18)         147.9499         estimate D2E/DX2                !
 ! D67   D(8,9,19,6)           -12.0728         estimate D2E/DX2                !
 ! D68   D(10,9,19,6)         -132.4461         estimate D2E/DX2                !
 ! D69   D(50,9,19,6)          110.9205         estimate D2E/DX2                !
 ! D70   D(9,10,11,12)        -178.2588         estimate D2E/DX2                !
 ! D71   D(9,10,11,51)           1.4986         estimate D2E/DX2                !
 ! D72   D(18,10,11,12)         -4.0297         estimate D2E/DX2                !
 ! D73   D(18,10,11,51)        175.7278         estimate D2E/DX2                !
 ! D74   D(9,10,18,14)         178.2754         estimate D2E/DX2                !
 ! D75   D(9,10,18,56)          -1.7657         estimate D2E/DX2                !
 ! D76   D(11,10,18,14)          4.3042         estimate D2E/DX2                !
 ! D77   D(11,10,18,56)       -175.737          estimate D2E/DX2                !
 ! D78   D(10,11,12,13)          0.7699         estimate D2E/DX2                !
 ! D79   D(10,11,12,52)       -179.761          estimate D2E/DX2                !
 ! D80   D(51,11,12,13)       -178.97           estimate D2E/DX2                !
 ! D81   D(51,11,12,52)          0.4991         estimate D2E/DX2                !
 ! D82   D(11,12,13,14)          2.1332         estimate D2E/DX2                !
 ! D83   D(11,12,13,53)       -178.9624         estimate D2E/DX2                !
 ! D84   D(52,12,13,14)       -177.326          estimate D2E/DX2                !
 ! D85   D(52,12,13,53)          1.5784         estimate D2E/DX2                !
 ! D86   D(12,13,14,15)        178.6902         estimate D2E/DX2                !
 ! D87   D(12,13,14,18)         -1.8637         estimate D2E/DX2                !
 ! D88   D(53,13,14,15)         -0.2366         estimate D2E/DX2                !
 ! D89   D(53,13,14,18)        179.2095         estimate D2E/DX2                !
 ! D90   D(13,14,15,16)       -148.9612         estimate D2E/DX2                !
 ! D91   D(13,14,15,17)         32.431          estimate D2E/DX2                !
 ! D92   D(18,14,15,16)         31.6159         estimate D2E/DX2                !
 ! D93   D(18,14,15,17)       -146.9919         estimate D2E/DX2                !
 ! D94   D(13,14,18,10)         -1.3246         estimate D2E/DX2                !
 ! D95   D(13,14,18,56)        178.7194         estimate D2E/DX2                !
 ! D96   D(15,14,18,10)        178.1004         estimate D2E/DX2                !
 ! D97   D(15,14,18,56)         -1.8556         estimate D2E/DX2                !
 ! D98   D(14,15,16,54)        176.4659         estimate D2E/DX2                !
 ! D99   D(14,15,16,55)         23.8378         estimate D2E/DX2                !
 ! D100  D(17,15,16,54)         -5.0285         estimate D2E/DX2                !
 ! D101  D(17,15,16,55)       -157.6566         estimate D2E/DX2                !
 ! D102  D(1,24,25,26)         100.6394         estimate D2E/DX2                !
 ! D103  D(1,24,25,59)         -22.495          estimate D2E/DX2                !
 ! D104  D(1,24,25,60)        -140.7577         estimate D2E/DX2                !
 ! D105  D(24,25,26,27)        -69.9094         estimate D2E/DX2                !
 ! D106  D(24,25,26,40)        173.9022         estimate D2E/DX2                !
 ! D107  D(24,25,26,61)         55.1764         estimate D2E/DX2                !
 ! D108  D(59,25,26,27)         53.2985         estimate D2E/DX2                !
 ! D109  D(59,25,26,40)        -62.8899         estimate D2E/DX2                !
 ! D110  D(59,25,26,61)        178.3844         estimate D2E/DX2                !
 ! D111  D(60,25,26,27)        172.197          estimate D2E/DX2                !
 ! D112  D(60,25,26,40)         56.0086         estimate D2E/DX2                !
 ! D113  D(60,25,26,61)        -62.7171         estimate D2E/DX2                !
 ! D114  D(25,26,27,28)       -152.4724         estimate D2E/DX2                !
 ! D115  D(25,26,27,42)         90.1961         estimate D2E/DX2                !
 ! D116  D(25,26,27,62)        -36.3675         estimate D2E/DX2                !
 ! D117  D(40,26,27,28)        -34.7694         estimate D2E/DX2                !
 ! D118  D(40,26,27,42)       -152.1009         estimate D2E/DX2                !
 ! D119  D(40,26,27,62)         81.3355         estimate D2E/DX2                !
 ! D120  D(61,26,27,28)         82.0945         estimate D2E/DX2                !
 ! D121  D(61,26,27,42)        -35.237          estimate D2E/DX2                !
 ! D122  D(61,26,27,62)       -161.8006         estimate D2E/DX2                !
 ! D123  D(25,26,40,29)        147.4046         estimate D2E/DX2                !
 ! D124  D(27,26,40,29)         22.6197         estimate D2E/DX2                !
 ! D125  D(61,26,40,29)        -93.8149         estimate D2E/DX2                !
 ! D126  D(26,27,28,29)         33.968          estimate D2E/DX2                !
 ! D127  D(26,27,28,41)        -80.3285         estimate D2E/DX2                !
 ! D128  D(26,27,28,63)        155.089          estimate D2E/DX2                !
 ! D129  D(42,27,28,29)        155.9335         estimate D2E/DX2                !
 ! D130  D(42,27,28,41)         41.6371         estimate D2E/DX2                !
 ! D131  D(42,27,28,63)        -82.9454         estimate D2E/DX2                !
 ! D132  D(62,27,28,29)        -81.8217         estimate D2E/DX2                !
 ! D133  D(62,27,28,41)        163.8818         estimate D2E/DX2                !
 ! D134  D(62,27,28,63)         39.2994         estimate D2E/DX2                !
 ! D135  D(26,27,42,70)        -74.0715         estimate D2E/DX2                !
 ! D136  D(28,27,42,70)        173.02           estimate D2E/DX2                !
 ! D137  D(62,27,42,70)         51.5891         estimate D2E/DX2                !
 ! D138  D(27,28,29,30)         96.8095         estimate D2E/DX2                !
 ! D139  D(27,28,29,40)        -22.0439         estimate D2E/DX2                !
 ! D140  D(27,28,29,64)       -142.8827         estimate D2E/DX2                !
 ! D141  D(41,28,29,30)       -147.2365         estimate D2E/DX2                !
 ! D142  D(41,28,29,40)         93.91           estimate D2E/DX2                !
 ! D143  D(41,28,29,64)        -26.9287         estimate D2E/DX2                !
 ! D144  D(63,28,29,30)        -25.23           estimate D2E/DX2                !
 ! D145  D(63,28,29,40)       -144.0834         estimate D2E/DX2                !
 ! D146  D(63,28,29,64)         95.0778         estimate D2E/DX2                !
 ! D147  D(27,28,41,69)        -34.6296         estimate D2E/DX2                !
 ! D148  D(29,28,41,69)       -145.7716         estimate D2E/DX2                !
 ! D149  D(63,28,41,69)         91.4449         estimate D2E/DX2                !
 ! D150  D(28,29,30,31)         81.0098         estimate D2E/DX2                !
 ! D151  D(28,29,30,39)       -101.0619         estimate D2E/DX2                !
 ! D152  D(40,29,30,31)       -160.9034         estimate D2E/DX2                !
 ! D153  D(40,29,30,39)         17.0249         estimate D2E/DX2                !
 ! D154  D(64,29,30,31)        -40.9418         estimate D2E/DX2                !
 ! D155  D(64,29,30,39)        136.9866         estimate D2E/DX2                !
 ! D156  D(28,29,40,26)         -0.3501         estimate D2E/DX2                !
 ! D157  D(30,29,40,26)       -122.546          estimate D2E/DX2                !
 ! D158  D(64,29,40,26)        119.9169         estimate D2E/DX2                !
 ! D159  D(29,30,31,32)         -0.7578         estimate D2E/DX2                !
 ! D160  D(29,30,31,37)        178.8352         estimate D2E/DX2                !
 ! D161  D(39,30,31,32)       -179.0674         estimate D2E/DX2                !
 ! D162  D(39,30,31,37)          0.5256         estimate D2E/DX2                !
 ! D163  D(29,30,39,38)       -178.7014         estimate D2E/DX2                !
 ! D164  D(29,30,39,68)          0.4753         estimate D2E/DX2                !
 ! D165  D(31,30,39,38)         -0.4381         estimate D2E/DX2                !
 ! D166  D(31,30,39,68)        178.7386         estimate D2E/DX2                !
 ! D167  D(30,31,32,33)        179.161          estimate D2E/DX2                !
 ! D168  D(37,31,32,33)         -0.3548         estimate D2E/DX2                !
 ! D169  D(30,31,37,35)       -179.5949         estimate D2E/DX2                !
 ! D170  D(30,31,37,38)         -0.4753         estimate D2E/DX2                !
 ! D171  D(32,31,37,35)          0.0124         estimate D2E/DX2                !
 ! D172  D(32,31,37,38)        179.1319         estimate D2E/DX2                !
 ! D173  D(31,32,33,34)          0.2267         estimate D2E/DX2                !
 ! D174  D(31,32,33,65)       -179.6213         estimate D2E/DX2                !
 ! D175  D(32,33,34,35)          0.2625         estimate D2E/DX2                !
 ! D176  D(65,33,34,35)       -179.8883         estimate D2E/DX2                !
 ! D177  D(33,34,35,36)        178.2752         estimate D2E/DX2                !
 ! D178  D(33,34,35,37)         -0.6245         estimate D2E/DX2                !
 ! D179  D(34,35,36,66)        165.1177         estimate D2E/DX2                !
 ! D180  D(34,35,36,67)         16.0472         estimate D2E/DX2                !
 ! D181  D(37,35,36,66)        -16.0199         estimate D2E/DX2                !
 ! D182  D(37,35,36,67)       -165.0905         estimate D2E/DX2                !
 ! D183  D(34,35,37,31)          0.4987         estimate D2E/DX2                !
 ! D184  D(34,35,37,38)       -178.3747         estimate D2E/DX2                !
 ! D185  D(36,35,37,31)       -178.3628         estimate D2E/DX2                !
 ! D186  D(36,35,37,38)          2.7638         estimate D2E/DX2                !
 ! D187  D(31,37,38,39)          0.2137         estimate D2E/DX2                !
 ! D188  D(35,37,38,39)        179.133          estimate D2E/DX2                !
 ! D189  D(37,38,39,30)          0.1409         estimate D2E/DX2                !
 ! D190  D(37,38,39,68)       -178.9954         estimate D2E/DX2                !
 --------------------------------------------------------------------------------
 Trust Radius=3.00D-01 FncErr=1.00D-07 GrdErr=1.00D-07
 Number of steps in this run= 405 maximum allowed number of steps= 420.
 GradGradGradGradGradGradGradGradGradGradGradGradGradGradGradGradGradGrad

 Stoichiometry    C21H26N7O14P2(1-)
 Framework group  C1[X(C21H26N7O14P2)]
 Deg. of freedom   204
 Full point group                 C1      NOp   1
 Largest Abelian subgroup         C1      NOp   1
 Largest concise Abelian subgroup C1      NOp   1
                         Standard orientation:                         
 ---------------------------------------------------------------------
 Center     Atomic     Atomic              Coordinates (Angstroms)
 Number     Number      Type              X           Y           Z
 ---------------------------------------------------------------------
    1         15             0        1.103809    -.359200   -1.445655
    2          8             0        2.502463    -.294798   -2.209755
    3         15             0        3.853064     .618436   -2.093395
    4          8             0        4.456708     .017263    -.677125
    5          6             0        5.590960    -.785905    -.585834
    6          6             0        5.364873   -1.883703     .444188
    7          6             0        4.301487   -2.934864     .100619
    8          6             0        3.055498   -2.263372     .650605
    9          6             0        3.604507   -1.655675    1.935243
   10          7             0        2.808857    -.449075    2.330062
   11          6             0        1.681112    -.660626    3.025067
   12          6             0         .878626     .378200    3.394274
   13          6             0        1.243632    1.668054    3.021422
   14          6             0        2.373125    1.866837    2.256218
   15          6             0        2.733251    3.269486    1.838779
   16          7             0        3.362270    3.401982     .671009
   17          8             0        2.459882    4.178976    2.584880
   18          6             0        3.138349     .769727    1.911441
   19          8             0        4.909519   -1.309601    1.685638
   20          8             0        1.929816   -3.025876     .858108
   21          8             0        4.529286   -4.127136     .808593
   22          8             0        4.753439     .211351   -3.172727
   23          8             0        3.486275    2.012336   -1.790085
   24          8             0         .145393     .370290   -2.515299
   25          6             0       -1.219172     .069393   -2.620491
   26          6             0       -2.055820    1.125506   -1.914403
   27          6             0       -1.988702    1.170497    -.381762
   28          6             0       -3.359440    1.753953    -.042063
   29          6             0       -4.254720    1.169784   -1.135454
   30          7             0       -4.976269    -.030637    -.712553
   31          6             0       -6.123653    -.062026     .020006
   32          7             0       -6.820899     .957928     .514752
   33          6             0       -7.889430     .554911    1.157981
   34          7             0       -8.320808    -.686699    1.359411
   35          6             0       -7.604209   -1.687283     .865737
   36          7             0       -8.012120   -2.957401    1.093166
   37          6             0       -6.441943   -1.396635     .148743
   38          7             0       -5.515273   -2.184497    -.501297
   39          6             0       -4.679453   -1.340980    -.990526
   40          8             0       -3.422226     .822683   -2.191697
   41          8             0       -3.340095    3.140445    -.208039
   42          8             0       -1.008279    1.993249     .145145
   43          8             0        1.155839     .457318    -.198488
   44          8             0         .695048   -1.778771   -1.299388
   45          1             0        6.429896    -.177826    -.259740
   46          1             0        5.844859   -1.219285   -1.544161
   47          1             0        6.312369   -2.364889     .656780
   48          1             0        4.220628   -3.115752    -.964523
   49          1             0        2.850327   -1.442397    -.002018
   50          1             0        3.532729   -2.333074    2.774550
   51          1             0        1.459552   -1.681353    3.260041
   52          1             0        -.016433     .187389    3.952832
   53          1             0         .650402    2.515602    3.304679
   54          1             0        3.540046    4.342120     .392027
   55          1             0        3.316896    2.734704    -.093322
   56          1             0        4.014093     .839860    1.305929
   57          1             0        1.315336   -2.785977     .152853
   58          1             0        5.204556   -4.629107     .375056
   59          1             0       -1.428028    -.914090   -2.220551
   60          1             0       -1.473806     .070415   -3.672559
   61          1             0       -1.813786    2.105267   -2.306771
   62          1             0       -1.908024     .157618     .009475
   63          1             0       -3.705332    1.490202     .951028
   64          1             0       -4.991302    1.896125   -1.442799
   65          1             0       -8.506748    1.327430    1.580846
   66          1             0       -7.609714   -3.681133     .542067
   67          1             0       -8.948377   -3.080961    1.404384
   68          1             0       -3.825191   -1.595146   -1.578575
   69          1             0       -2.472518    3.441024     .041820
   70          1             0        -.143626    1.570001     .027745
 ---------------------------------------------------------------------
 Rotational constants (GHZ):       .1235229       .0378957       .0367849
 Standard basis: 6-31G(d) (6D, 7F)
 There are   720 symmetry adapted basis functions of A   symmetry.
 Integral buffers will be    131072 words long.
 Raffenetti 1 integral format.
 Two-electron integral symmetry is turned on.
   720 basis functions,  1384 primitive gaussians,   720 cartesian basis functions
   172 alpha electrons      172 beta electrons
       nuclear repulsion energy      6570.8452343561 Hartrees.
 NAtoms=   70 NActive=   70 NUniq=   70 SFac= 1.00D+00 NAtFMM=   60 Big=T
 One-electron integrals computed using PRISM.
 NBasis=   720 RedAO= T  NBF=   720
 NBsUse=   720 1.00D-06 NBFU=   720
 Harris functional with IExCor=  205 diagonalized for initial guess.
 ExpMin= 9.98D-02 ExpMax= 1.94D+04 ExpMxC= 2.91D+03 IAcc=2 IRadAn=         4 AccDes= 0.00D+00
 HarFok:  IExCor= 205 AccDes= 0.00D+00 IRadAn=         4 IDoV=1
 ScaDFX=  1.000000  1.000000  1.000000  1.000000
 Initial guess orbital symmetries:
       Occupied  (A) (A) (A) (A) (A) (A) (A) (A) (A) (A) (A) (A)
                 (A) (A) (A) (A) (A) (A) (A) (A) (A) (A) (A) (A)
                 (A) (A) (A) (A) (A) (A) (A) (A) (A) (A) (A) (A)
                 (A) (A) (A) (A) (A) (A) (A) (A) (A) (A) (A) (A)
                 (A) (A) (A) (A) (A) (A) (A) (A) (A) (A) (A) (A)
                 (A) (A) (A) (A) (A) (A) (A) (A) (A) (A) (A) (A)
                 (A) (A) (A) (A) (A) (A) (A) (A) (A) (A) (A) (A)
                 (A) (A) (A) (A) (A) (A) (A) (A) (A) (A) (A) (A)
                 (A) (A) (A) (A) (A) (A) (A) (A) (A) (A) (A) (A)
                 (A) (A) (A) (A) (A) (A) (A) (A) (A) (A) (A) (A)
                 (A) (A) (A) (A) (A) (A) (A) (A) (A) (A) (A) (A)
                 (A) (A) (A) (A) (A) (A) (A) (A) (A) (A) (A) (A)
                 (A) (A) (A) (A) (A) (A) (A) (A) (A) (A) (A) (A)
                 (A) (A) (A) (A) (A) (A) (A) (A) (A) (A) (A) (A)
                 (A) (A) (A) (A)
       Virtual   (A) (A) (A) (A) (A) (A) (A) (A) (A) (A) (A) (A)
                 (A) (A) (A) (A) (A) (A) (A) (A) (A) (A) (A) (A)
                 (A) (A) (A) (A) (A) (A) (A) (A) (A) (A) (A) (A)
                 (A) (A) (A) (A) (A) (A) (A) (A) (A) (A) (A) (A)
                 (A) (A) (A) (A) (A) (A) (A) (A) (A) (A) (A) (A)
                 (A) (A) (A) (A) (A) (A) (A) (A) (A) (A) (A) (A)
                 (A) (A) (A) (A) (A) (A) (A) (A) (A) (A) (A) (A)
                 (A) (A) (A) (A) (A) (A) (A) (A) (A) (A) (A) (A)
                 (A) (A) (A) (A) (A) (A) (A) (A) (A) (A) (A) (A)
                 (A) (A) (A) (A) (A) (A) (A) (A) (A) (A) (A) (A)
                 (A) (A) (A) (A) (A) (A) (A) (A) (A) (A) (A) (A)
                 (A) (A) (A) (A) (A) (A) (A) (A) (A) (A) (A) (A)
                 (A) (A) (A) (A) (A) (A) (A) (A) (A) (A) (A) (A)
                 (A) (A) (A) (A) (A) (A) (A) (A) (A) (A) (A) (A)
                 (A) (A) (A) (A) (A) (A) (A) (A) (A) (A) (A) (A)
                 (A) (A) (A) (A) (A) (A) (A) (A) (A) (A) (A) (A)
                 (A) (A) (A) (A) (A) (A) (A) (A) (A) (A) (A) (A)
                 (A) (A) (A) (A) (A) (A) (A) (A) (A) (A) (A) (A)
                 (A) (A) (A) (A) (A) (A) (A) (A) (A) (A) (A) (A)
                 (A) (A) (A) (A) (A) (A) (A) (A) (A) (A) (A) (A)
                 (A) (A) (A) (A) (A) (A) (A) (A) (A) (A) (A) (A)
                 (A) (A) (A) (A) (A) (A) (A) (A) (A) (A) (A) (A)
                 (A) (A) (A) (A) (A) (A) (A) (A) (A) (A) (A) (A)
                 (A) (A) (A) (A) (A) (A) (A) (A) (A) (A) (A) (A)
                 (A) (A) (A) (A) (A) (A) (A) (A) (A) (A) (A) (A)
                 (A) (A) (A) (A) (A) (A) (A) (A) (A) (A) (A) (A)
                 (A) (A) (A) (A) (A) (A) (A) (A) (A) (A) (A) (A)
                 (A) (A) (A) (A) (A) (A) (A) (A) (A) (A) (A) (A)
                 (A) (A) (A) (A) (A) (A) (A) (A) (A) (A) (A) (A)
                 (A) (A) (A) (A) (A) (A) (A) (A) (A) (A) (A) (A)
                 (A) (A) (A) (A) (A) (A) (A) (A) (A) (A) (A) (A)
                 (A) (A) (A) (A) (A) (A) (A) (A) (A) (A) (A) (A)
                 (A) (A) (A) (A) (A) (A) (A) (A) (A) (A) (A) (A)
                 (A) (A) (A) (A) (A) (A) (A) (A) (A) (A) (A) (A)
                 (A) (A) (A) (A) (A) (A) (A) (A) (A) (A) (A) (A)
                 (A) (A) (A) (A) (A) (A) (A) (A) (A) (A) (A) (A)
                 (A) (A) (A) (A) (A) (A) (A) (A) (A) (A) (A) (A)
                 (A) (A) (A) (A) (A) (A) (A) (A) (A) (A) (A) (A)
                 (A) (A) (A) (A) (A) (A) (A) (A) (A) (A) (A) (A)
                 (A) (A) (A) (A) (A) (A) (A) (A) (A) (A) (A) (A)
                 (A) (A) (A) (A) (A) (A) (A) (A) (A) (A) (A) (A)
                 (A) (A) (A) (A) (A) (A) (A) (A) (A) (A) (A) (A)
                 (A) (A) (A) (A) (A) (A) (A) (A) (A) (A) (A) (A)
                 (A) (A) (A) (A) (A) (A) (A) (A) (A) (A) (A) (A)
                 (A) (A) (A) (A) (A) (A) (A) (A) (A) (A) (A) (A)
                 (A) (A) (A) (A) (A) (A) (A) (A)
 The electronic state of the initial guess is 1-A.
 Requested convergence on RMS density matrix=1.00D-08 within 128 cycles.
 Requested convergence on MAX density matrix=1.00D-06.
 Requested convergence on             energy=1.00D-06.
 No special actions if energy rises.
 Integral accuracy reduced to 1.0D-05 until final iterations.
 Initial convergence to 1.0D-05 achieved.  Increase integral accuracy.
 SCF Done:  E(RHF) =  -2921.32020011     A.U. after   16 cycles
             Convg  =     .3101D-08             -V/T =  2.0015
             S**2   =    .0000

 **********************************************************************

            Population analysis using the SCF density.

 **********************************************************************

 Orbital symmetries:
 BldTbl:  Degeneracy threshold= 1.00D-02
       Occupied  (A) (A) (A) (A) (A) (A) (A) (A) (A) (A) (A) (A)
                 (A) (A) (A) (A) (A) (A) (A) (A) (A) (A) (A) (A)
                 (A) (A) (A) (A) (A) (A) (A) (A) (A) (A) (A) (A)
                 (A) (A) (A) (A) (A) (A) (A) (A) (A) (A) (A) (A)
                 (A) (A) (A) (A) (A) (A) (A) (A) (A) (A) (A) (A)
                 (A) (A) (A) (A) (A) (A) (A) (A) (A) (A) (A) (A)
                 (A) (A) (A) (A) (A) (A) (A) (A) (A) (A) (A) (A)
                 (A) (A) (A) (A) (A) (A) (A) (A) (A) (A) (A) (A)
                 (A) (A) (A) (A) (A) (A) (A) (A) (A) (A) (A) (A)
                 (A) (A) (A) (A) (A) (A) (A) (A) (A) (A) (A) (A)
                 (A) (A) (A) (A) (A) (A) (A) (A) (A) (A) (A) (A)
                 (A) (A) (A) (A) (A) (A) (A) (A) (A) (A) (A) (A)
                 (A) (A) (A) (A) (A) (A) (A) (A) (A) (A) (A) (A)
                 (A) (A) (A) (A) (A) (A) (A) (A) (A) (A) (A) (A)
                 (A) (A) (A) (A)
       Virtual   (A) (A) (A) (A) (A) (A) (A) (A) (A) (A) (A) (A)
                 (A) (A) (A) (A) (A) (A) (A) (A) (A) (A) (A) (A)
                 (A) (A) (A) (A) (A) (A) (A) (A) (A) (A) (A) (A)
                 (A) (A) (A) (A) (A) (A) (A) (A) (A) (A) (A) (A)
                 (A) (A) (A) (A) (A) (A) (A) (A) (A) (A) (A) (A)
                 (A) (A) (A) (A) (A) (A) (A) (A) (A) (A) (A) (A)
                 (A) (A) (A) (A) (A) (A) (A) (A) (A) (A) (A) (A)
                 (A) (A) (A) (A) (A) (A) (A) (A) (A) (A) (A) (A)
                 (A) (A) (A) (A) (A) (A) (A) (A) (A) (A) (A) (A)
                 (A) (A) (A) (A) (A) (A) (A) (A) (A) (A) (A) (A)
                 (A) (A) (A) (A) (A) (A) (A) (A) (A) (A) (A) (A)
                 (A) (A) (A) (A) (A) (A) (A) (A) (A) (A) (A) (A)
                 (A) (A) (A) (A) (A) (A) (A) (A) (A) (A) (A) (A)
                 (A) (A) (A) (A) (A) (A) (A) (A) (A) (A) (A) (A)
                 (A) (A) (A) (A) (A) (A) (A) (A) (A) (A) (A) (A)
                 (A) (A) (A) (A) (A) (A) (A) (A) (A) (A) (A) (A)
                 (A) (A) (A) (A) (A) (A) (A) (A) (A) (A) (A) (A)
                 (A) (A) (A) (A) (A) (A) (A) (A) (A) (A) (A) (A)
                 (A) (A) (A) (A) (A) (A) (A) (A) (A) (A) (A) (A)
                 (A) (A) (A) (A) (A) (A) (A) (A) (A) (A) (A) (A)
                 (A) (A) (A) (A) (A) (A) (A) (A) (A) (A) (A) (A)
                 (A) (A) (A) (A) (A) (A) (A) (A) (A) (A) (A) (A)
                 (A) (A) (A) (A) (A) (A) (A) (A) (A) (A) (A) (A)
                 (A) (A) (A) (A) (A) (A) (A) (A) (A) (A) (A) (A)
                 (A) (A) (A) (A) (A) (A) (A) (A) (A) (A) (A) (A)
                 (A) (A) (A) (A) (A) (A) (A) (A) (A) (A) (A) (A)
                 (A) (A) (A) (A) (A) (A) (A) (A) (A) (A) (A) (A)
                 (A) (A) (A) (A) (A) (A) (A) (A) (A) (A) (A) (A)
                 (A) (A) (A) (A) (A) (A) (A) (A) (A) (A) (A) (A)
                 (A) (A) (A) (A) (A) (A) (A) (A) (A) (A) (A) (A)
                 (A) (A) (A) (A) (A) (A) (A) (A) (A) (A) (A) (A)
                 (A) (A) (A) (A) (A) (A) (A) (A) (A) (A) (A) (A)
                 (A) (A) (A) (A) (A) (A) (A) (A) (A) (A) (A) (A)
                 (A) (A) (A) (A) (A) (A) (A) (A) (A) (A) (A) (A)
                 (A) (A) (A) (A) (A) (A) (A) (A) (A) (A) (A) (A)
                 (A) (A) (A) (A) (A) (A) (A) (A) (A) (A) (A) (A)
                 (A) (A) (A) (A) (A) (A) (A) (A) (A) (A) (A) (A)
                 (A) (A) (A) (A) (A) (A) (A) (A) (A) (A) (A) (A)
                 (A) (A) (A) (A) (A) (A) (A) (A) (A) (A) (A) (A)
                 (A) (A) (A) (A) (A) (A) (A) (A) (A) (A) (A) (A)
                 (A) (A) (A) (A) (A) (A) (A) (A) (A) (A) (A) (A)
                 (A) (A) (A) (A) (A) (A) (A) (A) (A) (A) (A) (A)
                 (A) (A) (A) (A) (A) (A) (A) (A) (A) (A) (A) (A)
                 (A) (A) (A) (A) (A) (A) (A) (A) (A) (A) (A) (A)
                 (A) (A) (A) (A) (A) (A) (A) (A) (A) (A) (A) (A)
                 (A) (A) (A) (A) (A) (A) (A) (A)
 The electronic state is 1-A.
 Alpha  occ. eigenvalues --  -79.95370 -79.93855 -20.52075 -20.50142 -20.49889
 Alpha  occ. eigenvalues --  -20.47757 -20.46615 -20.46263 -20.46257 -20.45898
 Alpha  occ. eigenvalues --  -20.45014 -20.44369 -20.38163 -20.37663 -20.36148
 Alpha  occ. eigenvalues --  -20.35498 -15.62039 -15.55337 -15.52067 -15.49063
 Alpha  occ. eigenvalues --  -15.48963 -15.48597 -15.47873 -11.27609 -11.27524
 Alpha  occ. eigenvalues --  -11.26833 -11.26454 -11.25694 -11.25591 -11.24061
 Alpha  occ. eigenvalues --  -11.24050 -11.23863 -11.22532 -11.21817 -11.21022
 Alpha  occ. eigenvalues --  -11.20648 -11.20210 -11.19900 -11.19709 -11.19483
 Alpha  occ. eigenvalues --  -11.19451 -11.19247 -11.18638 -11.17867  -7.47606
 Alpha  occ. eigenvalues --   -7.46059  -5.37509  -5.37457  -5.37359  -5.35948
 Alpha  occ. eigenvalues --   -5.35897  -5.35800  -1.37025  -1.35046  -1.31347
 Alpha  occ. eigenvalues --   -1.31077  -1.30827  -1.30390  -1.29441  -1.29328
 Alpha  occ. eigenvalues --   -1.28618  -1.27817  -1.26388  -1.24418  -1.24268
 Alpha  occ. eigenvalues --   -1.18786  -1.18544  -1.15967  -1.13896  -1.12827
 Alpha  occ. eigenvalues --   -1.12717  -1.11971  -1.09372  -1.08107  -1.02715
 Alpha  occ. eigenvalues --    -.98437   -.97405   -.96598   -.95872   -.94972
 Alpha  occ. eigenvalues --    -.87778   -.86500   -.85049   -.82827   -.82463
 Alpha  occ. eigenvalues --    -.81238   -.76901   -.76501   -.74729   -.73711
 Alpha  occ. eigenvalues --    -.73501   -.72453   -.70660   -.70033   -.69373
 Alpha  occ. eigenvalues --    -.67679   -.66885   -.66113   -.65230   -.64621
 Alpha  occ. eigenvalues --    -.64334   -.63376   -.62767   -.62602   -.61454
 Alpha  occ. eigenvalues --    -.61393   -.60860   -.60178   -.58761   -.58549
 Alpha  occ. eigenvalues --    -.57905   -.57356   -.57220   -.56668   -.55952
 Alpha  occ. eigenvalues --    -.55826   -.55059   -.54900   -.54747   -.53630
 Alpha  occ. eigenvalues --    -.53597   -.53079   -.52279   -.51793   -.51413
 Alpha  occ. eigenvalues --    -.50478   -.50358   -.49791   -.49072   -.48891
 Alpha  occ. eigenvalues --    -.48202   -.48089   -.47856   -.47575   -.47088
 Alpha  occ. eigenvalues --    -.46762   -.45511   -.45376   -.44539   -.44033
 Alpha  occ. eigenvalues --    -.43378   -.42276   -.41678   -.40780   -.40243
 Alpha  occ. eigenvalues --    -.39656   -.39378   -.39043   -.38795   -.37813
 Alpha  occ. eigenvalues --    -.37498   -.37225   -.36676   -.36405   -.35892
 Alpha  occ. eigenvalues --    -.35028   -.34494   -.34345   -.34147   -.33782
 Alpha  occ. eigenvalues --    -.33223   -.33107   -.32544   -.32149   -.31735
 Alpha  occ. eigenvalues --    -.31020   -.30603   -.30096   -.29587   -.29502
 Alpha  occ. eigenvalues --    -.28457   -.24294
 Alpha virt. eigenvalues --     .13063    .16726    .19935    .22411    .28309
 Alpha virt. eigenvalues --     .28504    .29033    .29618    .29747    .32134
 Alpha virt. eigenvalues --     .32407    .32977    .33916    .34380    .34749
 Alpha virt. eigenvalues --     .34979    .35182    .35505    .35724    .36418
 Alpha virt. eigenvalues --     .36700    .37039    .37118    .38720    .39158
 Alpha virt. eigenvalues --     .39437    .40137    .40681    .40842    .41092
 Alpha virt. eigenvalues --     .41452    .42778    .43050    .43563    .44380
 Alpha virt. eigenvalues --     .44889    .45308    .45806    .46051    .46336
 Alpha virt. eigenvalues --     .46976    .47530    .47916    .48545    .48882
 Alpha virt. eigenvalues --     .49626    .49932    .50369    .50488    .51359
 Alpha virt. eigenvalues --     .51581    .52031    .52770    .53343    .53605
 Alpha virt. eigenvalues --     .54069    .54655    .54817    .55405    .55791
 Alpha virt. eigenvalues --     .56760    .57194    .57815    .58133    .58809
 Alpha virt. eigenvalues --     .59544    .59564    .59998    .61130    .61917
 Alpha virt. eigenvalues --     .62345    .62986    .63863    .64386    .64681
 Alpha virt. eigenvalues --     .65619    .66589    .68116    .68514    .71684
 Alpha virt. eigenvalues --     .72058    .72560    .73302    .73610    .74043
 Alpha virt. eigenvalues --     .75295    .76888    .78683    .79591    .79820
 Alpha virt. eigenvalues --     .80176    .81017    .81586    .81800    .83063
 Alpha virt. eigenvalues --     .83370    .83958    .84290    .85093    .85308
 Alpha virt. eigenvalues --     .86010    .86887    .87866    .88009    .88238
 Alpha virt. eigenvalues --     .88377    .88677    .88719    .89164    .89471
 Alpha virt. eigenvalues --     .90855    .91059    .91415    .91716    .91801
 Alpha virt. eigenvalues --     .92870    .93055    .93194    .94213    .94630
 Alpha virt. eigenvalues --     .94837    .95246    .95721    .96022    .97627
 Alpha virt. eigenvalues --     .98253    .99013    .99233    .99508   1.00275
 Alpha virt. eigenvalues --    1.00639   1.01182   1.01552   1.02464   1.02896
 Alpha virt. eigenvalues --    1.03613   1.04469   1.04870   1.04952   1.05306
 Alpha virt. eigenvalues --    1.05659   1.06358   1.06665   1.07206   1.07310
 Alpha virt. eigenvalues --    1.07684   1.08564   1.09054   1.09513   1.10410
 Alpha virt. eigenvalues --    1.10501   1.10764   1.11544   1.12210   1.13518
 Alpha virt. eigenvalues --    1.13972   1.14317   1.14475   1.14676   1.15124
 Alpha virt. eigenvalues --    1.15439   1.15664   1.16233   1.17400   1.17604
 Alpha virt. eigenvalues --    1.18105   1.18340   1.18821   1.19287   1.19463
 Alpha virt. eigenvalues --    1.20504   1.21014   1.22234   1.22374   1.22660
 Alpha virt. eigenvalues --    1.22768   1.23528   1.23939   1.24243   1.24633
 Alpha virt. eigenvalues --    1.24828   1.25126   1.25822   1.25997   1.26558
 Alpha virt. eigenvalues --    1.27025   1.27275   1.27884   1.28116   1.28718
 Alpha virt. eigenvalues --    1.29110   1.29870   1.29992   1.30595   1.30894
 Alpha virt. eigenvalues --    1.31085   1.32138   1.32604   1.33139   1.33852
 Alpha virt. eigenvalues --    1.34296   1.34697   1.35701   1.36421   1.36807
 Alpha virt. eigenvalues --    1.37554   1.38447   1.38869   1.39088   1.40479
 Alpha virt. eigenvalues --    1.40674   1.41127   1.41509   1.42044   1.42436
 Alpha virt. eigenvalues --    1.42852   1.43494   1.44381   1.44643   1.45178
 Alpha virt. eigenvalues --    1.45379   1.45689   1.46511   1.47141   1.47829
 Alpha virt. eigenvalues --    1.48128   1.48981   1.49960   1.50726   1.51746
 Alpha virt. eigenvalues --    1.52975   1.53545   1.53806   1.54141   1.55368
 Alpha virt. eigenvalues --    1.55810   1.56266   1.57164   1.57730   1.58002
 Alpha virt. eigenvalues --    1.58603   1.59981   1.60654   1.60968   1.62099
 Alpha virt. eigenvalues --    1.62674   1.62959   1.64351   1.64623   1.65027
 Alpha virt. eigenvalues --    1.66409   1.66833   1.67265   1.68093   1.68540
 Alpha virt. eigenvalues --    1.69122   1.69566   1.69924   1.71222   1.71638
 Alpha virt. eigenvalues --    1.72250   1.72948   1.73554   1.74536   1.75007
 Alpha virt. eigenvalues --    1.75334   1.76099   1.76373   1.77724   1.77907
 Alpha virt. eigenvalues --    1.78974   1.79290   1.80166   1.80357   1.81117
 Alpha virt. eigenvalues --    1.81286   1.81810   1.82276   1.82494   1.83379
 Alpha virt. eigenvalues --    1.83811   1.84264   1.85195   1.85509   1.86413
 Alpha virt. eigenvalues --    1.86965   1.87335   1.87803   1.89237   1.89790
 Alpha virt. eigenvalues --    1.90459   1.91443   1.91727   1.93555   1.94262
 Alpha virt. eigenvalues --    1.94661   1.95433   1.96792   1.97378   1.97471
 Alpha virt. eigenvalues --    1.98320   1.98859   1.99662   2.01251   2.02387
 Alpha virt. eigenvalues --    2.04061   2.04616   2.04903   2.05389   2.06391
 Alpha virt. eigenvalues --    2.07801   2.09048   2.09766   2.10111   2.10985
 Alpha virt. eigenvalues --    2.11182   2.11972   2.12445   2.13302   2.13665
 Alpha virt. eigenvalues --    2.14655   2.14883   2.15314   2.16117   2.16572
 Alpha virt. eigenvalues --    2.16924   2.18321   2.18725   2.19620   2.20317
 Alpha virt. eigenvalues --    2.20635   2.21412   2.21653   2.22647   2.23061
 Alpha virt. eigenvalues --    2.23991   2.24576   2.25333   2.26094   2.26645
 Alpha virt. eigenvalues --    2.26839   2.27184   2.27594   2.28199   2.28384
 Alpha virt. eigenvalues --    2.29133   2.29792   2.30675   2.31149   2.31441
 Alpha virt. eigenvalues --    2.31795   2.31943   2.32282   2.33511   2.34242
 Alpha virt. eigenvalues --    2.34560   2.34780   2.35886   2.36428   2.36860
 Alpha virt. eigenvalues --    2.37580   2.38565   2.38820   2.39752   2.40526
 Alpha virt. eigenvalues --    2.40689   2.41932   2.43274   2.43798   2.44044
 Alpha virt. eigenvalues --    2.45392   2.46194   2.46560   2.47573   2.48629
 Alpha virt. eigenvalues --    2.49300   2.49592   2.50343   2.51281   2.52157
 Alpha virt. eigenvalues --    2.52668   2.53284   2.53699   2.54076   2.55581
 Alpha virt. eigenvalues --    2.55723   2.55927   2.57067   2.57534   2.58660
 Alpha virt. eigenvalues --    2.58973   2.59323   2.59859   2.60407   2.61531
 Alpha virt. eigenvalues --    2.61895   2.62533   2.62847   2.63608   2.63990
 Alpha virt. eigenvalues --    2.64746   2.65155   2.65815   2.66249   2.67019
 Alpha virt. eigenvalues --    2.67498   2.67765   2.68621   2.68925   2.70254
 Alpha virt. eigenvalues --    2.70475   2.70927   2.71764   2.72432   2.73531
 Alpha virt. eigenvalues --    2.74085   2.76137   2.77980   2.78472   2.79029
 Alpha virt. eigenvalues --    2.79277   2.80364   2.80548   2.81598   2.83981
 Alpha virt. eigenvalues --    2.84182   2.84730   2.85444   2.85872   2.86361
 Alpha virt. eigenvalues --    2.87466   2.87984   2.89295   2.89552   2.90087
 Alpha virt. eigenvalues --    2.90220   2.92026   2.93158   2.95008   2.96699
 Alpha virt. eigenvalues --    2.96811   2.99793   3.01030   3.01168   3.01815
 Alpha virt. eigenvalues --    3.02267   3.03517   3.04026   3.05011   3.05529
 Alpha virt. eigenvalues --    3.05906   3.06182   3.08258   3.08520   3.08549
 Alpha virt. eigenvalues --    3.09001   3.10392   3.11090   3.11385   3.11918
 Alpha virt. eigenvalues --    3.12254   3.14516   3.15167   3.15983   3.17108
 Alpha virt. eigenvalues --    3.17765   3.18648   3.20111   3.20840   3.21687
 Alpha virt. eigenvalues --    3.22730   3.24161   3.24308   3.25434   3.25803
 Alpha virt. eigenvalues --    3.26619   3.28324   3.29585   3.30537   3.31266
 Alpha virt. eigenvalues --    3.32922   3.36374   3.36884   3.37918   3.38445
 Alpha virt. eigenvalues --    3.39798   3.40751   3.42893   3.43521   3.44415
 Alpha virt. eigenvalues --    3.45766   3.46400   3.47285   3.47867   3.48616
 Alpha virt. eigenvalues --    3.50907   3.52694   3.55662   3.55721   3.63197
 Alpha virt. eigenvalues --    3.70012   3.76797   3.91306   3.94926   4.03110
 Alpha virt. eigenvalues --    4.05814   4.31629   4.35130   4.35898   4.40140
 Alpha virt. eigenvalues --    4.42080   4.46015   4.50512   4.51340   4.53011
 Alpha virt. eigenvalues --    4.54554   4.55116   4.56915   4.57875   4.59146
 Alpha virt. eigenvalues --    4.61876   4.63925   4.64668   4.67346   4.70065
 Alpha virt. eigenvalues --    4.71247   4.75430   4.76034   4.77601   4.79252
 Alpha virt. eigenvalues --    4.80689   4.83942   4.84142   4.88081   4.91096
 Alpha virt. eigenvalues --    4.93789   4.96916   4.98660   5.00671   5.02360
 Alpha virt. eigenvalues --    5.03735   5.05971   5.14621   5.19863   5.22141
 Alpha virt. eigenvalues --    5.24025   5.24836   5.30089
          Condensed to atoms (all electrons):
 Mulliken atomic charges:
              1
     1  P    1.725363
     2  O    -.837903
     3  P    1.648712
     4  O    -.803432
     5  C     .024009
     6  C     .130048
     7  C     .058887
     8  C     .156171
     9  C     .407552
    10  N    -.667603
    11  C     .184616
    12  C    -.288205
    13  C    -.061219
    14  C    -.183057
    15  C     .764298
    16  N    -.966731
    17  O    -.635716
    18  C     .253469
    19  O    -.688698
    20  O    -.819838
    21  O    -.751983
    22  O    -.774257
    23  O    -.829633
    24  O    -.726762
    25  C    -.000251
    26  C     .156673
    27  C     .118890
    28  C     .110649
    29  C     .425390
    30  N    -.785456
    31  C     .678656
    32  N    -.622670
    33  C     .265936
    34  N    -.658864
    35  C     .617598
    36  N    -.913450
    37  C     .070844
    38  N    -.594208
    39  C     .313880
    40  O    -.699940
    41  O    -.780493
    42  O    -.855230
    43  O    -.923109
    44  O    -.854719
    45  H     .154468
    46  H     .200128
    47  H     .168724
    48  H     .215067
    49  H     .236436
    50  H     .205399
    51  H     .277621
    52  H     .239478
    53  H     .276912
    54  H     .382173
    55  H     .531344
    56  H     .349035
    57  H     .529459
    58  H     .437760
    59  H     .182072
    60  H     .174929
    61  H     .197056
    62  H     .172482
    63  H     .183428
    64  H     .225516
    65  H     .197472
    66  H     .400703
    67  H     .384622
    68  H     .253356
    69  H     .479797
    70  H     .556354
 Sum of Mulliken charges=  -1.00000
 Atomic charges with hydrogens summed into heavy atoms:
              1
     1  P    1.725363
     2  O    -.837903
     3  P    1.648712
     4  O    -.803432
     5  C     .378605
     6  C     .298772
     7  C     .273954
     8  C     .392607
     9  C     .612951
    10  N    -.667603
    11  C     .462237
    12  C    -.048727
    13  C     .215693
    14  C    -.183057
    15  C     .764298
    16  N    -.053214
    17  O    -.635716
    18  C     .602504
    19  O    -.688698
    20  O    -.290378
    21  O    -.314223
    22  O    -.774257
    23  O    -.829633
    24  O    -.726762
    25  C     .356750
    26  C     .353729
    27  C     .291372
    28  C     .294077
    29  C     .650906
    30  N    -.785456
    31  C     .678656
    32  N    -.622670
    33  C     .463407
    34  N    -.658864
    35  C     .617598
    36  N    -.128126
    37  C     .070844
    38  N    -.594208
    39  C     .567236
    40  O    -.699940
    41  O    -.300696
    42  O    -.298876
    43  O    -.923109
    44  O    -.854719
    45  H     .000000
    46  H     .000000
    47  H     .000000
    48  H     .000000
    49  H     .000000
    50  H     .000000
    51  H     .000000
    52  H     .000000
    53  H     .000000
    54  H     .000000
    55  H     .000000
    56  H     .000000
    57  H     .000000
    58  H     .000000
    59  H     .000000
    60  H     .000000
    61  H     .000000
    62  H     .000000
    63  H     .000000
    64  H     .000000
    65  H     .000000
    66  H     .000000
    67  H     .000000
    68  H     .000000
    69  H     .000000
    70  H     .000000
 Sum of Mulliken charges=  -1.00000
 Entering OneElI...
 OneElI was handed  5499482 working-precision words.
 Multipole integrals L=0 to 4 MinM= 0 MaxM= 0.
 Requested accuracy =  .1000D-12
 PrsmSu:  NPrtUS=   1 ThrOK=F
 PRISM was handed     4064891 working-precision words and 14768 shell-pairs
 Electronic moments (au):
  -344.00000000    -1.37907453    -2.57780440     3.93230653
-21634.29147444 -4488.76374618 -3653.44219026    -8.67640250
    25.16802648    -1.92466612100457.61297693  -470.92687685
 -1125.89661632 -6584.15445758 24221.60307979 -9182.66025031
 -8151.39016243 -2913.37568243 -6018.81970417 -1761.27915801
******************************-90016.11600349***************
214707.07456958 -2148.07978559-14103.63355313 -3077.37532861
 -7155.27839921******************************-35522.94806837
 44914.87693777-24486.18225251-12567.30857675
 Electronic spatial extent (au):  <R**2>= 29776.4974
 Nuclear    moments (au):
   343.00000000      .00000000      .00000000      .00000000
 21386.46025163  4264.42605513  3432.65738197      .00000000
     -.00008110     -.00001311***************   330.86302054
  1250.77650867  6585.59999936-24579.05340781  9273.59067824
  8000.37800661  2846.07534643  5901.17040994  1775.87421634
***************147173.25418948 76828.17964910163452.91237011
***************  2008.23308108 13476.47870706  4064.97740005
  6821.81536191262846.60313650129444.21962279 30257.46682343
-44523.55317553 23617.08601409 11932.56030862
 Total      moments (au):
    -1.00000000    -1.37907453    -2.57780440     3.93230653
  -247.83122281  -224.33769105  -220.78480829    -8.67640250
    25.16794538    -1.92467923   339.91285047  -140.06385630
   124.87989234     1.44554178  -357.45032802    90.93042793
  -151.01215582   -67.30033600  -117.64929423    14.59505834
-79379.02621170-15704.91417035-13187.93635439   467.74517861
  2186.41570252  -139.84670451  -627.15484607   987.60207144
  -333.46303730-13649.51722505-17323.23199802 -5265.48124493
   391.32376225  -869.09623842  -634.74826814
 Charge=    -1.0000 electrons
 Dipole moment (field-independent basis, Debye):
    X=    -3.5053    Y=    -6.5521    Z=     9.9949  Tot=    12.4545
 Quadrupole moment (field-independent basis, Debye-Ang):
   XX=  -333.3415   YY=  -301.7419   ZZ=  -296.9631
   XY=   -11.6701   XZ=    33.8517   YZ=    -2.5888
 Traceless Quadrupole moment (field-independent basis, Debye-Ang):
   XX=   -22.6593   YY=     8.9403   ZZ=    13.7190
   XY=   -11.6701   XZ=    33.8517   YZ=    -2.5888
 Octapole moment (field-independent basis, Debye-Ang**2):
  XXX=   241.9369  YYY=   -99.6920  ZZZ=    88.8847  XYY=     1.0289
  XXY=  -254.4194  XXZ=    64.7208  XZZ=  -107.4846  YZZ=   -47.9018
  YYZ=   -83.7382  XYZ=    10.3882
 Hexadecapole moment (field-independent basis, Debye-Ang**3):
 XXXX=-29897.9451 YYYY= -5915.2233 ZZZZ= -4967.2088 XXXY=   176.1752
 XXXZ=   823.5089 YYYX=   -52.6730 YYYZ=  -236.2166 ZZZX=   371.9783
 ZZZY=  -125.5982 XXYY= -5141.0623 XXZZ= -6524.7593 YYZZ= -1983.2326
 XXYZ=   147.3913 YYXZ=  -327.3433 ZZXY=  -239.0766
 N-N= 6.570845234356D+03 E-N=-2.006467122928D+04  KE= 2.916807193698D+03
 Entering OneElI...
 OneElI was handed  4460212 working-precision words.
 Calculate electrostatic properties
    NBasis =   720  MinDer = 0  MaxDer = 0
    NGrid  =    70  NMatD  =   1
 Requested accuracy =  .1000D-12
 PrsmSu:  NPrtUS=   1 ThrOK=F
 PRISM was handed     3178625 working-precision words and 12485 shell-pairs
 --------------------------------------------------------
       Center         ----      EFG at Nuclei      ----
                      3XX-RR        3YY-RR        3ZZ-RR
 --------------------------------------------------------
     1   Atom        -.531820       .568009      -.036189
     2   Atom       -1.086241       .519674       .566567
     3   Atom        -.264036       .378900      -.114864
     4   Atom        -.501065       .378810       .122255
     5   Atom        -.179753      -.027709       .207462
     6   Atom         .130418       .136359      -.266777
     7   Atom         .149339      -.226379       .077040
     8   Atom        -.116546       .069385       .047161
     9   Atom        -.228836      -.150965       .379800
    10   Atom        -.009095      -.112694       .121789
    11   Atom        -.074844       .349492      -.274647
    12   Atom         .016145       .126343      -.142488
    13   Atom         .047493       .276701      -.324194
    14   Atom         .015453       .111271      -.126724
    15   Atom        -.390720       .259613       .131107
    16   Atom         .547458      -.267765      -.279693
    17   Atom        -.416536       .166635       .249901
    18   Atom         .190951       .063034      -.253985
    19   Atom       -1.013984      1.176158      -.162174
    20   Atom       -1.233237       .773316       .459921
    21   Atom         .393216      -.892875       .499659
    22   Atom        -.125996       .362399      -.236403
    23   Atom         .428183      -.729260       .301076
    24   Atom       -1.490377       .890418       .599959
    25   Atom        -.368093       .164900       .203192
    26   Atom        -.397716       .213887       .183829
    27   Atom        -.087050       .023606       .063445
    28   Atom         .155196      -.293086       .137891
    29   Atom         .073982      -.055833      -.018149
    30   Atom        -.058537      -.337256       .395794
    31   Atom        -.097183       .316063      -.218880
    32   Atom        -.354079       .740387      -.386309
    33   Atom         .041515       .210409      -.251924
    34   Atom         .498229      -.482866      -.015363
    35   Atom         .108938       .147152      -.256090
    36   Atom        -.135340      -.492174       .627514
    37   Atom        -.004021       .033287      -.029266
    38   Atom        -.434342       .853821      -.419479
    39   Atom         .143881      -.038279      -.105601
    40   Atom       -1.545837      1.435891       .109947
    41   Atom        -.225362     -1.328004      1.553366
    42   Atom       -1.371148       .177155      1.193992
    43   Atom         .332328       .123254      -.455583
    44   Atom         .275338      -.755661       .480324
    45   Atom        -.125157       .007006       .118151
    46   Atom         .119483       .069631      -.189115
    47   Atom        -.195461       .062716       .132745
    48   Atom         .157422       .128855      -.286276
    49   Atom         .130024      -.114552      -.015472
    50   Atom         .143338      -.022021      -.121316
    51   Atom         .128573      -.272292       .143719
    52   Atom        -.176175       .135909       .040266
    53   Atom         .009099      -.132504       .123405
    54   Atom         .223965      -.369505       .145541
    55   Atom         .188625      -.086279      -.102346
    56   Atom        -.163598       .137106       .026491
    57   Atom        -.071937       .173280      -.101342
    58   Atom        -.124793       .031820       .092972
    59   Atom         .121536      -.215984       .094448
    60   Atom         .120353       .160952      -.281305
    61   Atom         .125297      -.218980       .093683
    62   Atom         .144017      -.236618       .092601
    63   Atom         .112516       .118005      -.230521
    64   Atom        -.063630      -.053439       .117069
    65   Atom         .000736      -.090828       .090092
    66   Atom         .108317      -.151216       .042899
    67   Atom        -.364223       .176062       .188161
    68   Atom        -.151327       .128223       .023104
    69   Atom        -.350168       .130938       .219230
    70   Atom        -.270459       .078560       .191900
 --------------------------------------------------------
                        XY            XZ            YZ
 --------------------------------------------------------
     1   Atom         .305879       .035883       .370044
     2   Atom        -.638002       .472369      -.014260
     3   Atom        -.586053      -.712698       .567418
     4   Atom        1.333989      -.506052       .502329
     5   Atom         .233705      -.037012       .092078
     6   Atom         .103268       .169335      -.274080
     7   Atom         .048087      -.071247       .220576
     8   Atom        -.206812       .057234      -.108346
     9   Atom         .172501       .173852      -.070432
    10   Atom        -.035284       .178346       .036512
    11   Atom        -.119984      -.175607      -.027186
[...]
      ESP Fit Center **** is at   -.992938  4.360529 -2.306771
      ESP Fit Center **** is at  -1.397030  4.468806 -2.306771
      ESP Fit Center **** is at  -1.813786  4.505267 -2.306771
      ESP Fit Center **** is at    .215191  3.317524 -2.723527
      ESP Fit Center **** is at   -.033873  3.660331 -2.723527
      ESP Fit Center **** is at   -.340144  3.953156 -2.723527
      ESP Fit Center **** is at   -.693779  4.186589 -2.723527
      ESP Fit Center **** is at  -1.083412  4.353126 -2.723527
      ESP Fit Center **** is at  -1.496521  4.447415 -2.723527
      ESP Fit Center **** is at  -1.919826  4.466426 -2.723527
      ESP Fit Center **** is at  -2.339723  4.409547 -2.723527
      ESP Fit Center **** is at  -2.742716  4.278606 -2.723527
      ESP Fit Center **** is at    .083461  3.324554 -3.127619
      ESP Fit Center **** is at   -.181576  3.661576 -3.127619
      ESP Fit Center **** is at   -.505606  3.942349 -3.127619
      ESP Fit Center **** is at   -.876916  4.156726 -3.127619
      ESP Fit Center **** is at  -1.282088  4.296957 -3.127619
      ESP Fit Center **** is at  -1.706476  4.357975 -3.127619
      ESP Fit Center **** is at  -2.134743  4.337574 -3.127619
      ESP Fit Center **** is at  -2.551410  4.236492 -3.127619
      ESP Fit Center **** is at  -2.941417  4.058381 -3.127619
      ESP Fit Center **** is at  -3.290669  3.809680 -3.127619
      ESP Fit Center **** is at  -3.586542  3.499378 -3.127619
      ESP Fit Center **** is at   -.107861  3.292626 -3.506771
      ESP Fit Center **** is at   -.381795  3.611720 -3.506771
      ESP Fit Center **** is at   -.714355  3.869141 -3.506771
      ESP Fit Center **** is at  -1.091926  4.054348 -3.506771
      ESP Fit Center **** is at  -1.499049  4.159760 -3.506771
      ESP Fit Center **** is at  -1.919058  4.181060 -3.506771
      ESP Fit Center **** is at  -2.334758  4.117377 -3.506771
      ESP Fit Center **** is at  -2.729128  3.971319 -3.506771
      ESP Fit Center **** is at  -3.086024  3.748863 -3.506771
      ESP Fit Center **** is at  -3.390835  3.459119 -3.506771
      ESP Fit Center **** is at   -.170836  2.930387 -3.849461
      ESP Fit Center **** is at   -.405408  3.287036 -3.849461
      ESP Fit Center **** is at   -.715906  3.579976 -3.849461
      ESP Fit Center **** is at  -1.085591  3.793413 -3.849461
      ESP Fit Center **** is at  -1.494533  3.915843 -3.849461
      ESP Fit Center **** is at  -1.920686  3.940663 -3.849461
      ESP Fit Center **** is at  -2.341076  3.866537 -3.849461
      ESP Fit Center **** is at  -2.733039  3.697460 -3.849461
      ESP Fit Center **** is at  -3.075446  3.442548 -3.849461
      ESP Fit Center **** is at  -3.349836  3.115543 -3.849461
      ESP Fit Center **** is at   -.495682  2.906824 -4.145278
      ESP Fit Center **** is at   -.760818  3.232721 -4.145278
      ESP Fit Center **** is at  -1.104048  3.474999 -4.145278
      ESP Fit Center **** is at  -1.499916  3.615690 -4.145278
      ESP Fit Center **** is at  -1.919063  3.644361 -4.145278
      ESP Fit Center **** is at  -2.330402  3.558884 -4.145278
      ESP Fit Center **** is at  -2.703425  3.365598 -4.145278
      ESP Fit Center **** is at  -3.010468  3.078840 -4.145278
      ESP Fit Center **** is at   -.686155  2.515691 -4.385232
      ESP Fit Center **** is at   -.894533  2.876612 -4.385232
      ESP Fit Center **** is at  -1.213786  3.144497 -4.385232
      ESP Fit Center **** is at  -1.605408  3.287036 -4.385232
      ESP Fit Center **** is at  -2.022164  3.287036 -4.385232
      ESP Fit Center **** is at  -2.413786  3.144497 -4.385232
      ESP Fit Center **** is at  -2.733039  2.876612 -4.385232
      ESP Fit Center **** is at  -1.102910  2.515691 -4.562033
      ESP Fit Center **** is at  -1.403362  2.816142 -4.562033
      ESP Fit Center **** is at  -1.813786  2.926115 -4.562033
      ESP Fit Center **** is at  -2.224210  2.816142 -4.562033
      ESP Fit Center **** is at  -2.524662  2.515691 -4.562033
      ESP Fit Center **** is at  -1.605408  2.466188 -4.670310
      ESP Fit Center **** is at  -2.022164  2.466188 -4.670310
      ESP Fit Center **** is at  -2.116402  -.203303  2.373014
      ESP Fit Center **** is at  -2.618900  -.252806  2.264737
      ESP Fit Center **** is at  -2.318448  -.553258  2.264737
      ESP Fit Center **** is at  -1.908024  -.663230  2.264737
      ESP Fit Center **** is at  -2.827277  -.613727  2.087936
      ESP Fit Center **** is at  -2.508024  -.881613  2.087936
      ESP Fit Center **** is at  -2.116402 -1.024151  2.087936
      ESP Fit Center **** is at  -1.699646 -1.024151  2.087936
      ESP Fit Center **** is at  -3.104706  -.815955  1.847982
      ESP Fit Center **** is at  -2.797663 -1.102714  1.847982
      ESP Fit Center **** is at  -2.424640 -1.295999  1.847982
      ESP Fit Center **** is at  -2.013301 -1.381476  1.847982
      ESP Fit Center **** is at  -1.594154 -1.352806  1.847982
      ESP Fit Center **** is at  -1.198286 -1.212114  1.847982
      ESP Fit Center **** is at  -2.827277 -1.434575  1.552165
      ESP Fit Center **** is at  -2.435314 -1.603652  1.552165
      ESP Fit Center **** is at  -2.014924 -1.677778  1.552165
      ESP Fit Center **** is at  -1.588771 -1.652958  1.552165
      ESP Fit Center **** is at  -1.179829 -1.530528  1.552165
      ESP Fit Center **** is at  -2.428996 -1.854493  1.209475
      ESP Fit Center **** is at  -2.013296 -1.918175  1.209475
      ESP Fit Center **** is at  -1.593287 -1.896875  1.209475
      ESP Fit Center **** is at  -1.186164 -1.791463  1.209475
      ESP Fit Center **** is at  -2.228981 -2.074689   .830323
      ESP Fit Center **** is at  -1.800714 -2.095090   .830323
      ESP Fit Center **** is at  -1.376326 -2.034072   .830323
      ESP Fit Center **** is at  -2.014064 -2.203541   .426231
      ESP Fit Center **** is at  -1.590759 -2.184530   .426231
      ESP Fit Center **** is at  -1.908024 -2.242382   .009475
      ESP Fit Center **** is at  -3.705332  1.490202  3.351028
      ESP Fit Center **** is at  -3.288576  1.490202  3.314567
      ESP Fit Center **** is at  -3.496954  1.851123  3.314567
      ESP Fit Center **** is at  -3.913710  1.851123  3.314567
      ESP Fit Center **** is at  -4.122088  1.490202  3.314567
      ESP Fit Center **** is at  -3.913710  1.129281  3.314567
      ESP Fit Center **** is at  -3.496954  1.129281  3.314567
      ESP Fit Center **** is at  -2.884484  1.490202  3.206290
      ESP Fit Center **** is at  -2.994457  1.900626  3.206290
      ESP Fit Center **** is at  -3.294908  2.201078  3.206290
      ESP Fit Center **** is at  -3.705332  2.311050  3.206290
      ESP Fit Center **** is at  -4.115756  2.201078  3.206290
      ESP Fit Center **** is at  -4.416208  1.900626  3.206290
      ESP Fit Center **** is at  -4.526180  1.490202  3.206290
      ESP Fit Center **** is at  -4.416208  1.079778  3.206290
      ESP Fit Center **** is at  -4.115756   .779326  3.206290
      ESP Fit Center **** is at  -3.705332   .669354  3.206290
      ESP Fit Center **** is at  -3.294908   .779326  3.206290
      ESP Fit Center **** is at  -2.994457  1.079778  3.206290
      ESP Fit Center **** is at  -2.505332  1.490202  3.029489
      ESP Fit Center **** is at  -2.577701  1.900626  3.029489
      ESP Fit Center **** is at  -2.786079  2.261547  3.029489
      ESP Fit Center **** is at  -3.105332  2.529432  3.029489
      ESP Fit Center **** is at  -3.496954  2.671971  3.029489
      ESP Fit Center **** is at  -3.913710  2.671971  3.029489
      ESP Fit Center **** is at  -4.305332  2.529432  3.029489
      ESP Fit Center **** is at  -4.624585  2.261547  3.029489
      ESP Fit Center **** is at  -4.832963  1.900626  3.029489
      ESP Fit Center **** is at  -4.905332  1.490202  3.029489
      ESP Fit Center **** is at  -4.832963  1.079778  3.029489
      ESP Fit Center **** is at  -4.624585   .718857  3.029489
      ESP Fit Center **** is at  -4.305332   .450972  3.029489
      ESP Fit Center **** is at  -3.913710   .308433  3.029489
      ESP Fit Center **** is at  -3.496954   .308433  3.029489
      ESP Fit Center **** is at  -3.105332   .450972  3.029489
      ESP Fit Center **** is at  -2.786079   .718857  3.029489
      ESP Fit Center **** is at  -2.577701  1.079778  3.029489
      ESP Fit Center **** is at  -2.162642  1.490202  2.789535
      ESP Fit Center **** is at  -2.219849  1.906415  2.789535
      ESP Fit Center **** is at  -2.387228  2.291759  2.789535
      ESP Fit Center **** is at  -2.652364  2.617656  2.789535
      ESP Fit Center **** is at  -2.995594  2.859934  2.789535
      ESP Fit Center **** is at  -3.391462  3.000626  2.789535
      ESP Fit Center **** is at  -3.810609  3.029296  2.789535
      ESP Fit Center **** is at  -4.221948  2.943819  2.789535
      ESP Fit Center **** is at  -4.594971  2.750534  2.789535
      ESP Fit Center **** is at  -4.902014  2.463775  2.789535
      ESP Fit Center **** is at  -5.120305  2.104811  2.789535
      ESP Fit Center **** is at  -4.902014   .516629  2.789535
      ESP Fit Center **** is at  -4.594971   .229871  2.789535
      ESP Fit Center **** is at  -4.221948   .036585  2.789535
      ESP Fit Center **** is at  -3.810609  -.048892  2.789535
      ESP Fit Center **** is at  -3.391462  -.020221  2.789535
      ESP Fit Center **** is at  -2.995594   .120470  2.789535
      ESP Fit Center **** is at  -2.652364   .362748  2.789535
      ESP Fit Center **** is at  -2.387228   .688645  2.789535
      ESP Fit Center **** is at  -2.219849  1.073989  2.789535
      ESP Fit Center **** is at  -4.232622  3.251472  2.493718
      ESP Fit Center **** is at  -4.624585  3.082395  2.493718
      ESP Fit Center **** is at  -4.966992  2.827483  2.493718
      ESP Fit Center **** is at  -4.232622  -.271068  2.493718
      ESP Fit Center **** is at  -3.812232  -.345194  2.493718
      ESP Fit Center **** is at  -3.386079  -.320374  2.493718
      ESP Fit Center **** is at  -2.977137  -.197944  2.493718
      ESP Fit Center **** is at  -2.607452   .015493  2.493718
      ESP Fit Center **** is at  -2.296954   .308433  2.493718
      ESP Fit Center **** is at  -4.977570  3.133799  2.151028
      ESP Fit Center **** is at  -3.810604  -.585591  2.151028
      ESP Fit Center **** is at  -3.390595  -.564291  2.151028
      ESP Fit Center **** is at  -2.983472  -.458879  2.151028
      ESP Fit Center **** is at  -6.118933  3.849239  -.621951
      ESP Fit Center **** is at  -5.920232  4.069464 -1.026043
      ESP Fit Center **** is at  -6.293368  3.868671 -1.026043
      ESP Fit Center **** is at  -6.624655  3.604479 -1.026043
      ESP Fit Center **** is at  -5.812150  4.151387 -1.442799
      ESP Fit Center **** is at  -6.191302  3.974586 -1.442799
      ESP Fit Center **** is at  -6.533992  3.734632 -1.442799
      ESP Fit Center **** is at  -6.829809  3.438815 -1.442799
      ESP Fit Center **** is at  -5.517239  4.200405 -1.859555
      ESP Fit Center **** is at  -5.920232  4.069464 -1.859555
      ESP Fit Center **** is at  -6.293368  3.868671 -1.859555
      ESP Fit Center **** is at  -6.624655  3.604479 -1.859555
      ESP Fit Center **** is at  -6.903445  3.285378 -1.859555
      ESP Fit Center **** is at  -7.120777  2.921626 -1.859555
      ESP Fit Center **** is at  -5.312259  4.128432 -2.263647
      ESP Fit Center **** is at  -5.728926  4.027350 -2.263647
      ESP Fit Center **** is at  -6.118933  3.849239 -2.263647
      ESP Fit Center **** is at  -6.468185  3.600539 -2.263647
      ESP Fit Center **** is at  -6.764058  3.290236 -2.263647
      ESP Fit Center **** is at  -6.995859  2.929546 -2.263647
      ESP Fit Center **** is at  -7.155210  2.531506 -2.263647
      ESP Fit Center **** is at  -7.236352  2.110501 -2.263647
      ESP Fit Center **** is at  -4.676565  3.950618 -2.642799
      ESP Fit Center **** is at  -5.096574  3.971918 -2.642799
      ESP Fit Center **** is at  -5.512274  3.908236 -2.642799
      ESP Fit Center **** is at  -5.906644  3.762177 -2.642799
      ESP Fit Center **** is at  -6.263540  3.539722 -2.642799
      ESP Fit Center **** is at  -6.568351  3.249977 -2.642799
      ESP Fit Center **** is at  -6.808597  2.904806 -2.642799
      ESP Fit Center **** is at  -6.974443  2.518340 -2.642799
      ESP Fit Center **** is at  -7.059099  2.106399 -2.642799
      ESP Fit Center **** is at  -7.059099  1.685851 -2.642799
      ESP Fit Center **** is at  -6.974443  1.273910 -2.642799
      ESP Fit Center **** is at  -4.263107  3.584271 -2.985489
      ESP Fit Center **** is at  -4.672049  3.706701 -2.985489
      ESP Fit Center **** is at  -5.098202  3.731521 -2.985489
      ESP Fit Center **** is at  -5.518592  3.657395 -2.985489
      ESP Fit Center **** is at  -5.910555  3.488319 -2.985489
      ESP Fit Center **** is at  -6.252962  3.233406 -2.985489
      ESP Fit Center **** is at  -6.527352  2.906401 -2.985489
      ESP Fit Center **** is at  -6.718933  2.524931 -2.985489
      ESP Fit Center **** is at  -6.817377  2.109563 -2.985489
      ESP Fit Center **** is at  -6.817377  1.682687 -2.985489
      ESP Fit Center **** is at  -6.718933  1.267319 -2.985489
      ESP Fit Center **** is at  -4.677432  3.406549 -3.281306
      ESP Fit Center **** is at  -5.096579  3.435219 -3.281306
      ESP Fit Center **** is at  -5.507918  3.349742 -3.281306
      ESP Fit Center **** is at  -5.880941  3.156457 -3.281306
      ESP Fit Center **** is at  -6.187984  2.869698 -3.281306
      ESP Fit Center **** is at  -6.406275  2.510735 -3.281306
      ESP Fit Center **** is at  -6.519624  2.106188 -3.281306
      ESP Fit Center **** is at  -6.519624  1.686062 -3.281306
      ESP Fit Center **** is at  -6.406275  1.281516 -3.281306
      ESP Fit Center **** is at  -4.782924  3.077894 -3.521260
      ESP Fit Center **** is at  -5.199680  3.077894 -3.521260
      ESP Fit Center **** is at  -5.591302  2.935356 -3.521260
      ESP Fit Center **** is at  -5.910555  2.667470 -3.521260
      ESP Fit Center **** is at  -6.118933  2.306549 -3.521260
      ESP Fit Center **** is at  -6.191302  1.896125 -3.521260
      ESP Fit Center **** is at  -6.118933  1.485701 -3.521260
      ESP Fit Center **** is at  -4.991302  2.716973 -3.698061
      ESP Fit Center **** is at  -5.401726  2.607001 -3.698061
      ESP Fit Center **** is at  -5.702178  2.306549 -3.698061
      ESP Fit Center **** is at  -5.812150  1.896125 -3.698061
      ESP Fit Center **** is at  -8.298370  1.688351  3.944385
      ESP Fit Center **** is at  -8.715126  1.688351  3.944385
      ESP Fit Center **** is at  -8.923504  1.327430  3.944385
      ESP Fit Center **** is at  -8.096324  2.038306  3.836108
      ESP Fit Center **** is at  -8.506748  2.148278  3.836108
      ESP Fit Center **** is at  -8.917172  2.038306  3.836108
      ESP Fit Center **** is at  -9.217624  1.737854  3.836108
      ESP Fit Center **** is at  -9.327596  1.327430  3.836108
      ESP Fit Center **** is at  -9.217624   .917006  3.836108
      ESP Fit Center **** is at  -7.906748  2.366661  3.659307
      ESP Fit Center **** is at  -8.298370  2.509199  3.659307
      ESP Fit Center **** is at  -8.715126  2.509199  3.659307
      ESP Fit Center **** is at  -9.106748  2.366661  3.659307
      ESP Fit Center **** is at  -9.426001  2.098775  3.659307
      ESP Fit Center **** is at  -9.634379  1.737854  3.659307
      ESP Fit Center **** is at  -9.706748  1.327430  3.659307
      ESP Fit Center **** is at  -9.634379   .917006  3.659307
      ESP Fit Center **** is at  -7.797010  2.697162  3.419353
      ESP Fit Center **** is at  -8.192878  2.837854  3.419353
      ESP Fit Center **** is at  -8.612025  2.866524  3.419353
      ESP Fit Center **** is at  -9.023364  2.781047  3.419353
      ESP Fit Center **** is at  -9.396387  2.587762  3.419353
      ESP Fit Center **** is at  -9.703430  2.301003  3.419353
      ESP Fit Center **** is at  -9.921721  1.942040  3.419353
      ESP Fit Center **** is at -10.035070  1.537493  3.419353
      ESP Fit Center **** is at -10.035070  1.117367  3.419353
      ESP Fit Center **** is at  -7.408868  2.802139  3.123536
      ESP Fit Center **** is at  -7.778553  3.015577  3.123536
      ESP Fit Center **** is at  -8.187495  3.138006  3.123536
      ESP Fit Center **** is at  -8.613648  3.162826  3.123536
      ESP Fit Center **** is at  -9.034038  3.088700  3.123536
      ESP Fit Center **** is at  -9.426001  2.919624  3.123536
      ESP Fit Center **** is at  -9.768408  2.664711  3.123536
      ESP Fit Center **** is at -10.042798  2.337706  3.123536
      ESP Fit Center **** is at -10.234379  1.956236  3.123536
      ESP Fit Center **** is at -10.332823  1.540868  3.123536
      ESP Fit Center **** is at -10.332823  1.113993  3.123536
      ESP Fit Center **** is at  -7.407317  3.091304  2.780846
      ESP Fit Center **** is at  -7.784888  3.276511  2.780846
      ESP Fit Center **** is at  -8.192011  3.381923  2.780846
      ESP Fit Center **** is at  -8.612020  3.403223  2.780846
      ESP Fit Center **** is at  -9.027720  3.339541  2.780846
      ESP Fit Center **** is at  -9.422090  3.193482  2.780846
      ESP Fit Center **** is at  -9.778986  2.971027  2.780846
      ESP Fit Center **** is at -10.083797  2.681282  2.780846
      ESP Fit Center **** is at -10.324043  2.336111  2.780846
      ESP Fit Center **** is at -10.489889  1.949645  2.780846
      ESP Fit Center **** is at -10.574545  1.537705  2.780846
      ESP Fit Center **** is at -10.574545  1.117156  2.780846
      ESP Fit Center **** is at  -7.569878  3.378889  2.401694
      ESP Fit Center **** is at  -7.975050  3.519120  2.401694
      ESP Fit Center **** is at  -8.399438  3.580138  2.401694
      ESP Fit Center **** is at  -8.827705  3.559737  2.401694
      ESP Fit Center **** is at  -9.244372  3.458655  2.401694
      ESP Fit Center **** is at  -9.634379  3.280545  2.401694
      ESP Fit Center **** is at  -9.983631  3.031844  2.401694
      ESP Fit Center **** is at -10.279504  2.721541  2.401694
      ESP Fit Center **** is at -10.511305  2.360851  2.401694
      ESP Fit Center **** is at -10.670656  1.962811  2.401694
      ESP Fit Center **** is at -10.751798  1.541806  2.401694
      ESP Fit Center **** is at -10.751798  1.113054  2.401694
      ESP Fit Center **** is at  -7.776374  3.575289  1.997602
      ESP Fit Center **** is at  -8.189483  3.669578  1.997602
      ESP Fit Center **** is at  -8.612788  3.688589  1.997602
      ESP Fit Center **** is at  -9.032685  3.631710  1.997602
      ESP Fit Center **** is at  -9.435678  3.500770  1.997602
      ESP Fit Center **** is at  -9.808814  3.299976  1.997602
      ESP Fit Center **** is at -10.140101  3.035784  1.997602
      ESP Fit Center **** is at -10.418891  2.716683  1.997602
      ESP Fit Center **** is at -10.636223  2.352931  1.997602
      ESP Fit Center **** is at -10.785111  1.956218  1.997602
      ESP Fit Center **** is at -10.860772  1.539296  1.997602
      ESP Fit Center **** is at -10.860772  1.115564  1.997602
      ESP Fit Center **** is at  -8.089992  3.690969  1.580846
      ESP Fit Center **** is at  -8.506748  3.727430  1.580846
      ESP Fit Center **** is at  -8.923504  3.690969  1.580846
      ESP Fit Center **** is at  -9.327596  3.582692  1.580846
      ESP Fit Center **** is at  -9.706748  3.405891  1.580846
      ESP Fit Center **** is at -10.049438  3.165937  1.580846
      ESP Fit Center **** is at -10.345255  2.870120  1.580846
      ESP Fit Center **** is at -10.585209  2.527430  1.580846
      ESP Fit Center **** is at -10.762010  2.148278  1.580846
      ESP Fit Center **** is at -10.870287  1.744186  1.580846
      ESP Fit Center **** is at -10.906748  1.327430  1.580846
      ESP Fit Center **** is at -10.870287   .910674  1.580846
      ESP Fit Center **** is at  -8.189483  3.669578  1.164090
      ESP Fit Center **** is at  -8.612788  3.688589  1.164090
      ESP Fit Center **** is at  -9.032685  3.631710  1.164090
      ESP Fit Center **** is at  -9.435678  3.500770  1.164