 Entering Gaussian System, Link 0=g16
 Initial command:
 /opt/software/Gaussian/g16-AVX/g16/l1.exe "/mnt/gs18/scratch/users/pengfei/Gau-21504.inp" -scrdir="/mnt/gs18/scratch/users/pengfei/"
 Entering Link 1 = /opt/software/Gaussian/g16-AVX/g16/l1.exe PID=     21505.
  
 Copyright (c) 1988,1990,1992,1993,1995,1998,2003,2009,2016,
            Gaussian, Inc.  All Rights Reserved.
  
 This is part of the Gaussian(R) 16 program.  It is based on
 the Gaussian(R) 09 system (copyright 2009, Gaussian, Inc.),
 the Gaussian(R) 03 system (copyright 2003, Gaussian, Inc.),
 the Gaussian(R) 98 system (copyright 1998, Gaussian, Inc.),
 the Gaussian(R) 94 system (copyright 1995, Gaussian, Inc.),
 the Gaussian 92(TM) system (copyright 1992, Gaussian, Inc.),
 the Gaussian 90(TM) system (copyright 1990, Gaussian, Inc.),
 the Gaussian 88(TM) system (copyright 1988, Gaussian, Inc.),
 the Gaussian 86(TM) system (copyright 1986, Carnegie Mellon
 University), and the Gaussian 82(TM) system (copyright 1983,
 Carnegie Mellon University). Gaussian is a federally registered
 trademark of Gaussian, Inc.
  
 This software contains proprietary and confidential information,
 including trade secrets, belonging to Gaussian, Inc.
  
 This software is provided under written license and may be
 used, copied, transmitted, or stored only in accord with that
 written license.
  
 The following legend is applicable only to US Government
 contracts under FAR:
  
                    RESTRICTED RIGHTS LEGEND
  
 Use, reproduction and disclosure by the US Government is
 subject to restrictions as set forth in subparagraphs (a)
 and (c) of the Commercial Computer Software - Restricted
 Rights clause in FAR 52.227-19.
  
 Gaussian, Inc.
 340 Quinnipiac St., Bldg. 40, Wallingford CT 06492
  
  
 ---------------------------------------------------------------
 Warning -- This program may not be used in any manner that
 competes with the business of Gaussian, Inc. or will provide
 assistance to any competitor of Gaussian, Inc.  The licensee
 of this program is prohibited from giving any competitor of
 Gaussian, Inc. access to this program.  By using this program,
 the user acknowledges that Gaussian, Inc. is engaged in the
 business of creating and licensing software in the field of
 computational chemistry and represents and warrants to the
 licensee that it is not a competitor of Gaussian, Inc. and that
 it will not use this program in any manner prohibited above.
 ---------------------------------------------------------------
  

 Cite this work as:
 Gaussian 16, Revision A.03,
 M. J. Frisch, G. W. Trucks, H. B. Schlegel, G. E. Scuseria, 
 M. A. Robb, J. R. Cheeseman, G. Scalmani, V. Barone, 
 G. A. Petersson, H. Nakatsuji, X. Li, M. Caricato, A. V. Marenich, 
 J. Bloino, B. G. Janesko, R. Gomperts, B. Mennucci, H. P. Hratchian, 
 J. V. Ortiz, A. F. Izmaylov, J. L. Sonnenberg, D. Williams-Young, 
 F. Ding, F. Lipparini, F. Egidi, J. Goings, B. Peng, A. Petrone, 
 T. Henderson, D. Ranasinghe, V. G. Zakrzewski, J. Gao, N. Rega, 
 G. Zheng, W. Liang, M. Hada, M. Ehara, K. Toyota, R. Fukuda, 
 J. Hasegawa, M. Ishida, T. Nakajima, Y. Honda, O. Kitao, H. Nakai, 
 T. Vreven, K. Throssell, J. A. Montgomery, Jr., J. E. Peralta, 
 F. Ogliaro, M. J. Bearpark, J. J. Heyd, E. N. Brothers, K. N. Kudin, 
 V. N. Staroverov, T. A. Keith, R. Kobayashi, J. Normand, 
 K. Raghavachari, A. P. Rendell, J. C. Burant, S. S. Iyengar, 
 J. Tomasi, M. Cossi, J. M. Millam, M. Klene, C. Adamo, R. Cammi, 
 J. W. Ochterski, R. L. Martin, K. Morokuma, O. Farkas, 
 J. B. Foresman, and D. J. Fox, Gaussian, Inc., Wallingford CT, 2016.
 
 ******************************************
 Gaussian 16:  ES64L-G16RevA.03 25-Dec-2016
                11-Mar-2019 
 ******************************************
 %Chk=1A5T_small_opt.chk
 %Mem=10GB
 %NProcShared=12
 Will use up to   12 processors via shared memory.
 ----------------------------------------------------------------------
 # B3LYP/6-31G* Opt=Calcall Geom=AllCheckpoint Guess=Read Integral=(Gri
 d=UltraFine) IOp(7/33=1)
 ----------------------------------------------------------------------
 1/10=4,18=20,19=15,26=4,29=7,38=1/1,3;
 2/9=110,12=2,40=1/2;
 3/5=1,6=6,7=1,11=2,14=-4,25=1,30=1,71=2,74=-5,75=-5,116=-2,140=1/1,2,3;
 4/5=1/1;
 5/5=2,38=6/2;
 8/6=4,10=90,11=11/1;
 11/6=1,8=1,9=11,15=111,16=1/1,2,10;
 10/6=1/2;
 6/7=2,8=2,9=2,10=2,18=1,28=1/1;
 7/10=1,25=1,33=1/1,2,3,16;
 1/10=4,18=20,19=15,26=4/3(3);
 2/9=110/2;
 7/8=1,9=1,25=1,33=1,44=-1/16;
 99//99;
 2/9=110/2;
 3/5=1,6=6,7=1,11=2,14=-2,25=1,30=1,71=2,74=-5,75=-5,140=1/1,2,3;
 4/5=5,16=3,69=1/1;
 5/5=2,38=5/2;
 8/6=4,10=90,11=11/1;
 11/6=1,8=1,9=11,15=111,16=1/1,2,10;
 10/6=1/2;
 7/10=1,25=1,33=1/1,2,3,16;
 1/10=4,18=20,19=15,26=4/3(-8);
 2/9=110/2;
 6/7=2,8=2,9=2,10=2,18=1,19=2,28=1/1;
 7/8=1,9=1,25=1,33=1,44=-1/16;
 99//99;
 Structure from the checkpoint file:  "1A5T_small_opt.chk"
 ---
 CLR
 ---
 Charge = -2 Multiplicity = 1
 Redundant internal coordinates found in file.  (old form).
 H,0,17.1053478935,55.5611731027,50.0366484796
 C,0,16.5045381838,56.2370056824,49.4011247565
 H,0,15.7431354223,56.7135133218,50.0330503393
 C,0,15.848622988,55.4824601332,48.240749252
 S,0,14.8320303176,56.5664890456,47.1441495609
 H,0,17.1570929664,57.025967423,49.0120931637
 H,0,16.6260801651,54.9918496488,47.6435732896
 H,0,15.1997700269,54.6862696013,48.6379411182
 H,0,15.7360903372,55.5797599324,42.8951966914
 C,0,14.8883755877,56.0401001345,42.3762329171
 H,0,15.2658645035,56.5009204533,41.4533796971
 C,0,14.2349411508,57.0893524362,43.2805338653
 S,0,15.3799850451,58.455690376,43.7666751561
 H,0,14.1732416398,55.2453206012,42.0954132818
 H,0,13.3674480513,57.5322926617,42.766786713
 H,0,13.8610403668,56.6006660607,44.1873427561
 H,0,15.425685541,60.8025296186,45.683594366
 C,0,15.8598777167,61.3152460027,46.5485519913
 H,0,16.6455950979,61.988941549,46.1812473534
 C,0,16.4364788906,60.2921426206,47.5317202501
 S,0,17.7805353474,59.2455729974,46.8203517231
 H,0,15.0730564774,61.9311579591,47.0215863165
 H,0,16.8391750278,60.8158069886,48.4128491252
 H,0,15.634701389,59.6327437486,47.8855237296
 H,0,19.7135982793,58.2822706098,44.7126004204
 C,0,20.0949074732,57.4755121063,44.0777706375
 H,0,20.6207031708,57.9292280815,43.2178591368
 C,0,18.9459195198,56.5734319755,43.61722307
 S,0,18.0454987203,55.7453335518,44.9992696935
 H,0,20.8271512614,56.9058115162,44.6649505145
 H,0,18.2277491682,57.1652725386,43.0371043164
 H,0,19.3400430838,55.7919309586,42.9490570108
 Zn,0,16.5227191896,57.5112365624,45.6848493074
 Recover connectivity data from disk.

 GradGradGradGradGradGradGradGradGradGradGradGradGradGradGradGradGradGrad
 Berny optimization.
 Initialization pass.
                           ----------------------------
                           !    Initial Parameters    !
                           ! (Angstroms and Degrees)  !
 --------------------------                            --------------------------
 ! Name  Definition              Value          Derivative Info.                !
 --------------------------------------------------------------------------------
 ! R1    R(1,2)                  1.1053         calculate D2E/DX2 analytically  !
 ! R2    R(2,3)                  1.0982         calculate D2E/DX2 analytically  !
 ! R3    R(2,4)                  1.5317         calculate D2E/DX2 analytically  !
 ! R4    R(2,6)                  1.0953         calculate D2E/DX2 analytically  !
 ! R5    R(4,5)                  1.8469         calculate D2E/DX2 analytically  !
 ! R6    R(4,7)                  1.0962         calculate D2E/DX2 analytically  !
 ! R7    R(4,8)                  1.1012         calculate D2E/DX2 analytically  !
 ! R8    R(5,33)                 2.425          calculate D2E/DX2 analytically  !
 ! R9    R(9,10)                 1.0954         calculate D2E/DX2 analytically  !
 ! R10   R(10,11)                1.0984         calculate D2E/DX2 analytically  !
 ! R11   R(10,12)                1.5316         calculate D2E/DX2 analytically  !
 ! R12   R(10,14)                1.1054         calculate D2E/DX2 analytically  !
 ! R13   R(12,13)                1.8478         calculate D2E/DX2 analytically  !
 ! R14   R(12,15)                1.1012         calculate D2E/DX2 analytically  !
 ! R15   R(12,16)                1.0959         calculate D2E/DX2 analytically  !
 ! R16   R(13,33)                2.4243         calculate D2E/DX2 analytically  !
 ! R17   R(17,18)                1.0952         calculate D2E/DX2 analytically  !
 ! R18   R(18,19)                1.0982         calculate D2E/DX2 analytically  !
 ! R19   R(18,20)                1.5316         calculate D2E/DX2 analytically  !
 ! R20   R(18,22)                1.1055         calculate D2E/DX2 analytically  !
 ! R21   R(20,21)                1.846          calculate D2E/DX2 analytically  !
 ! R22   R(20,23)                1.1013         calculate D2E/DX2 analytically  !
 ! R23   R(20,24)                1.0967         calculate D2E/DX2 analytically  !
 ! R24   R(21,33)                2.4247         calculate D2E/DX2 analytically  !
 ! R25   R(25,26)                1.0951         calculate D2E/DX2 analytically  !
 ! R26   R(26,27)                1.1053         calculate D2E/DX2 analytically  !
 ! R27   R(26,28)                1.5317         calculate D2E/DX2 analytically  !
 ! R28   R(26,30)                1.098          calculate D2E/DX2 analytically  !
 ! R29   R(28,29)                1.8457         calculate D2E/DX2 analytically  !
 ! R30   R(28,31)                1.0966         calculate D2E/DX2 analytically  !
 ! R31   R(28,32)                1.1011         calculate D2E/DX2 analytically  !
 ! R32   R(29,33)                2.4305         calculate D2E/DX2 analytically  !
 ! A1    A(1,2,3)              108.1388         calculate D2E/DX2 analytically  !
 ! A2    A(1,2,4)              111.541          calculate D2E/DX2 analytically  !
 ! A3    A(1,2,6)              108.7129         calculate D2E/DX2 analytically  !
 ! A4    A(3,2,4)              110.6565         calculate D2E/DX2 analytically  !
 ! A5    A(3,2,6)              107.7518         calculate D2E/DX2 analytically  !
 ! A6    A(4,2,6)              109.932          calculate D2E/DX2 analytically  !
 ! A7    A(2,4,5)              113.3522         calculate D2E/DX2 analytically  !
 ! A8    A(2,4,7)              109.2358         calculate D2E/DX2 analytically  !
 ! A9    A(2,4,8)              109.5874         calculate D2E/DX2 analytically  !
 ! A10   A(5,4,7)              109.2444         calculate D2E/DX2 analytically  !
 ! A11   A(5,4,8)              108.3123         calculate D2E/DX2 analytically  !
 ! A12   A(7,4,8)              106.9045         calculate D2E/DX2 analytically  !
 ! A13   A(4,5,33)             101.6664         calculate D2E/DX2 analytically  !
 ! A14   A(9,10,11)            107.9627         calculate D2E/DX2 analytically  !
 ! A15   A(9,10,12)            109.7768         calculate D2E/DX2 analytically  !
 ! A16   A(9,10,14)            108.5942         calculate D2E/DX2 analytically  !
 ! A17   A(11,10,12)           110.8107         calculate D2E/DX2 analytically  !
 ! A18   A(11,10,14)           108.0913         calculate D2E/DX2 analytically  !
 ! A19   A(12,10,14)           111.5031         calculate D2E/DX2 analytically  !
 ! A20   A(10,12,13)           113.4245         calculate D2E/DX2 analytically  !
 ! A21   A(10,12,15)           109.6454         calculate D2E/DX2 analytically  !
 ! A22   A(10,12,16)           109.1866         calculate D2E/DX2 analytically  !
 ! A23   A(13,12,15)           108.2688         calculate D2E/DX2 analytically  !
 ! A24   A(13,12,16)           108.873          calculate D2E/DX2 analytically  !
 ! A25   A(15,12,16)           107.2555         calculate D2E/DX2 analytically  !
 ! A26   A(12,13,33)           102.2509         calculate D2E/DX2 analytically  !
 ! A27   A(17,18,19)           107.8582         calculate D2E/DX2 analytically  !
 ! A28   A(17,18,20)           110.0894         calculate D2E/DX2 analytically  !
 ! A29   A(17,18,22)           108.4557         calculate D2E/DX2 analytically  !
 ! A30   A(19,18,20)           110.8007         calculate D2E/DX2 analytically  !
 ! A31   A(19,18,22)           108.0914         calculate D2E/DX2 analytically  !
 ! A32   A(20,18,22)           111.4337         calculate D2E/DX2 analytically  !
 ! A33   A(18,20,21)           113.9186         calculate D2E/DX2 analytically  !
 ! A34   A(18,20,23)           109.4891         calculate D2E/DX2 analytically  !
 ! A35   A(18,20,24)           109.4803         calculate D2E/DX2 analytically  !
 ! A36   A(21,20,23)           108.1598         calculate D2E/DX2 analytically  !
 ! A37   A(21,20,24)           108.4043         calculate D2E/DX2 analytically  !
 ! A38   A(23,20,24)           107.164          calculate D2E/DX2 analytically  !
 ! A39   A(20,21,33)           102.0215         calculate D2E/DX2 analytically  !
 ! A40   A(25,26,27)           108.3136         calculate D2E/DX2 analytically  !
 ! A41   A(25,26,28)           110.3028         calculate D2E/DX2 analytically  !
 ! A42   A(25,26,30)           107.7249         calculate D2E/DX2 analytically  !
 ! A43   A(27,26,28)           111.3873         calculate D2E/DX2 analytically  !
 ! A44   A(27,26,30)           108.1672         calculate D2E/DX2 analytically  !
 ! A45   A(28,26,30)           110.824          calculate D2E/DX2 analytically  !
 ! A46   A(26,28,29)           113.8946         calculate D2E/DX2 analytically  !
 ! A47   A(26,28,31)           109.4193         calculate D2E/DX2 analytically  !
 ! A48   A(26,28,32)           109.3868         calculate D2E/DX2 analytically  !
 ! A49   A(29,28,31)           108.5886         calculate D2E/DX2 analytically  !
 ! A50   A(29,28,32)           108.0924         calculate D2E/DX2 analytically  !
 ! A51   A(31,28,32)           107.2435         calculate D2E/DX2 analytically  !
 ! A52   A(28,29,33)           101.0045         calculate D2E/DX2 analytically  !
 ! A53   A(5,33,13)            107.4146         calculate D2E/DX2 analytically  !
 ! A54   A(5,33,21)            111.0089         calculate D2E/DX2 analytically  !
 ! A55   A(5,33,29)            108.8748         calculate D2E/DX2 analytically  !
 ! A56   A(13,33,21)           109.6575         calculate D2E/DX2 analytically  !
 ! A57   A(13,33,29)           110.8053         calculate D2E/DX2 analytically  !
 ! A58   A(21,33,29)           109.0729         calculate D2E/DX2 analytically  !
 ! D1    D(1,2,4,5)           -179.9487         calculate D2E/DX2 analytically  !
 ! D2    D(1,2,4,7)            -57.8833         calculate D2E/DX2 analytically  !
 ! D3    D(1,2,4,8)             58.9279         calculate D2E/DX2 analytically  !
 ! D4    D(3,2,4,5)             59.6197         calculate D2E/DX2 analytically  !
 ! D5    D(3,2,4,7)           -178.3149         calculate D2E/DX2 analytically  !
 ! D6    D(3,2,4,8)            -61.5036         calculate D2E/DX2 analytically  !
 ! D7    D(6,2,4,5)            -59.2824         calculate D2E/DX2 analytically  !
 ! D8    D(6,2,4,7)             62.783          calculate D2E/DX2 analytically  !
 ! D9    D(6,2,4,8)            179.5942         calculate D2E/DX2 analytically  !
 ! D10   D(2,4,5,33)            82.6682         calculate D2E/DX2 analytically  !
 ! D11   D(7,4,5,33)           -39.3924         calculate D2E/DX2 analytically  !
 ! D12   D(8,4,5,33)          -155.4934         calculate D2E/DX2 analytically  !
 ! D13   D(4,5,33,13)          163.8069         calculate D2E/DX2 analytically  !
 ! D14   D(4,5,33,21)          -76.3174         calculate D2E/DX2 analytically  !
 ! D15   D(4,5,33,29)           43.7641         calculate D2E/DX2 analytically  !
 ! D16   D(9,10,12,13)          60.2875         calculate D2E/DX2 analytically  !
 ! D17   D(9,10,12,15)        -178.5541         calculate D2E/DX2 analytically  !
 ! D18   D(9,10,12,16)         -61.3146         calculate D2E/DX2 analytically  !
 ! D19   D(11,10,12,13)        -58.8734         calculate D2E/DX2 analytically  !
 ! D20   D(11,10,12,15)         62.2849         calculate D2E/DX2 analytically  !
 ! D21   D(11,10,12,16)        179.5245         calculate D2E/DX2 analytically  !
 ! D22   D(14,10,12,13)       -179.3243         calculate D2E/DX2 analytically  !
 ! D23   D(14,10,12,15)        -58.1659         calculate D2E/DX2 analytically  !
 ! D24   D(14,10,12,16)         59.0737         calculate D2E/DX2 analytically  !
 ! D25   D(10,12,13,33)        -84.549          calculate D2E/DX2 analytically  !
 ! D26   D(15,12,13,33)        153.5223         calculate D2E/DX2 analytically  !
 ! D27   D(16,12,13,33)         37.2283         calculate D2E/DX2 analytically  !
 ! D28   D(12,13,33,5)         -47.8857         calculate D2E/DX2 analytically  !
 ! D29   D(12,13,33,21)       -168.6184         calculate D2E/DX2 analytically  !
 ! D30   D(12,13,33,29)         70.9221         calculate D2E/DX2 analytically  !
 ! D31   D(17,18,20,21)         60.6837         calculate D2E/DX2 analytically  !
 ! D32   D(17,18,20,23)       -178.0755         calculate D2E/DX2 analytically  !
 ! D33   D(17,18,20,24)        -60.8664         calculate D2E/DX2 analytically  !
 ! D34   D(19,18,20,21)        -58.5408         calculate D2E/DX2 analytically  !
 ! D35   D(19,18,20,23)         62.7001         calculate D2E/DX2 analytically  !
 ! D36   D(19,18,20,24)        179.9092         calculate D2E/DX2 analytically  !
 ! D37   D(22,18,20,21)       -178.9383         calculate D2E/DX2 analytically  !
 ! D38   D(22,18,20,23)        -57.6974         calculate D2E/DX2 analytically  !
 ! D39   D(22,18,20,24)         59.5117         calculate D2E/DX2 analytically  !
 ! D40   D(18,20,21,33)        -83.4137         calculate D2E/DX2 analytically  !
 ! D41   D(23,20,21,33)        154.6091         calculate D2E/DX2 analytically  !
 ! D42   D(24,20,21,33)         38.7308         calculate D2E/DX2 analytically  !
 ! D43   D(20,21,33,5)         -49.4728         calculate D2E/DX2 analytically  !
 ! D44   D(20,21,33,13)         69.0574         calculate D2E/DX2 analytically  !
 ! D45   D(20,21,33,29)       -169.4364         calculate D2E/DX2 analytically  !
 ! D46   D(25,26,28,29)        -61.1344         calculate D2E/DX2 analytically  !
 ! D47   D(25,26,28,31)         60.5921         calculate D2E/DX2 analytically  !
 ! D48   D(25,26,28,32)        177.8027         calculate D2E/DX2 analytically  !
 ! D49   D(27,26,28,29)        178.5539         calculate D2E/DX2 analytically  !
 ! D50   D(27,26,28,31)        -59.7196         calculate D2E/DX2 analytically  !
 ! D51   D(27,26,28,32)         57.491          calculate D2E/DX2 analytically  !
 ! D52   D(30,26,28,29)         58.0758         calculate D2E/DX2 analytically  !
 ! D53   D(30,26,28,31)        179.8023         calculate D2E/DX2 analytically  !
 ! D54   D(30,26,28,32)        -62.9871         calculate D2E/DX2 analytically  !
 ! D55   D(26,28,29,33)         82.3129         calculate D2E/DX2 analytically  !
 ! D56   D(31,28,29,33)        -39.8722         calculate D2E/DX2 analytically  !
 ! D57   D(32,28,29,33)       -155.9055         calculate D2E/DX2 analytically  !
 ! D58   D(28,29,33,5)         166.6642         calculate D2E/DX2 analytically  !
 ! D59   D(28,29,33,13)         48.7427         calculate D2E/DX2 analytically  !
 ! D60   D(28,29,33,21)        -72.0638         calculate D2E/DX2 analytically  !
 --------------------------------------------------------------------------------
 Trust Radius=3.00D-01 FncErr=1.00D-07 GrdErr=1.00D-06 EigMax=2.50D+02 EigMin=1.00D-04
 Number of steps in this run=    160 maximum allowed number of steps=    198.
 GradGradGradGradGradGradGradGradGradGradGradGradGradGradGradGradGradGrad

                          Input orientation:                          
 ---------------------------------------------------------------------
 Center     Atomic      Atomic             Coordinates (Angstroms)
 Number     Number       Type             X           Y           Z
 ---------------------------------------------------------------------
      1          1           0       17.105348   55.561173   50.036648
      2          6           0       16.504538   56.237006   49.401125
      3          1           0       15.743135   56.713513   50.033050
      4          6           0       15.848623   55.482460   48.240749
      5         16           0       14.832030   56.566489   47.144150
      6          1           0       17.157093   57.025967   49.012093
      7          1           0       16.626080   54.991850   47.643573
      8          1           0       15.199770   54.686270   48.637941
      9          1           0       15.736090   55.579760   42.895197
     10          6           0       14.888376   56.040100   42.376233
     11          1           0       15.265865   56.500920   41.453380
     12          6           0       14.234941   57.089352   43.280534
     13         16           0       15.379985   58.455690   43.766675
     14          1           0       14.173242   55.245321   42.095413
     15          1           0       13.367448   57.532293   42.766787
     16          1           0       13.861040   56.600666   44.187343
     17          1           0       15.425686   60.802530   45.683594
     18          6           0       15.859878   61.315246   46.548552
     19          1           0       16.645595   61.988942   46.181247
     20          6           0       16.436479   60.292143   47.531720
     21         16           0       17.780535   59.245573   46.820352
     22          1           0       15.073056   61.931158   47.021586
     23          1           0       16.839175   60.815807   48.412849
     24          1           0       15.634701   59.632744   47.885524
     25          1           0       19.713598   58.282271   44.712600
     26          6           0       20.094907   57.475512   44.077771
     27          1           0       20.620703   57.929228   43.217859
     28          6           0       18.945920   56.573432   43.617223
     29         16           0       18.045499   55.745334   44.999270
     30          1           0       20.827151   56.905812   44.664951
     31          1           0       18.227749   57.165273   43.037104
     32          1           0       19.340043   55.791931   42.949057
     33         30           0       16.522719   57.511237   45.684849
 ---------------------------------------------------------------------
                    Distance matrix (angstroms):
                    1          2          3          4          5
     1  H    0.000000
     2  C    1.105266   0.000000
     3  H    1.784243   1.098237   0.000000
     4  C    2.193355   1.531677   2.176916   0.000000
     5  S    3.813815   2.828388   3.032734   1.846919   0.000000
     6  H    1.788299   1.095278   1.771795   2.165521   3.017656
     7  H    2.506120   2.157353   3.074625   1.096247   2.438755
     8  H    2.520529   2.165560   2.520177   1.101222   2.429377
     9  H    7.271557   6.584040   7.227337   5.347622   4.454723
    10  C    7.989137   7.211093   7.733754   5.968718   4.797217
    11  H    8.828325   8.048019   8.595565   6.888052   5.707659
    12  C    7.497977   6.583251   6.929097   5.458004   3.944291
    13  S    7.118123   6.159075   6.514178   5.392315   3.908538
    14  H    8.471141   7.732516   8.223517   6.374033   5.260155
    15  H    8.408811   7.452083   7.688490   6.349985   4.715833
    16  H    6.769081   5.856949   6.142256   4.650911   3.112346
    17  H    7.017276   5.985647   5.978177   5.917859   4.519921
    18  C    6.843053   5.860144   5.773327   6.073306   4.895089
    19  H    7.509441   6.593351   6.594010   6.871027   5.798206
    20  C    5.394824   4.465808   4.420856   4.897075   4.074919
    21  S    4.937129   4.164137   4.569875   4.462156   3.997001
    22  H    7.334679   6.335196   6.061496   6.608598   5.371479
    23  H    5.506246   4.696178   4.544796   5.427283   4.867744
    24  H    4.834028   3.818992   3.625677   4.170947   3.255124
    25  H    6.523253   6.038496   6.821493   5.935049   5.717171
    26  C    6.936165   6.539323   7.415114   6.271649   6.158480
    27  H    8.028779   7.618347   8.468498   7.347710   7.126117
    28  C    6.754361   6.287054   7.172189   5.671019   5.418795
    29  S    5.127668   4.689630   5.619359   3.924609   3.949834
    30  H    6.671957   6.446986   7.395992   6.292695   6.496387
    31  H    7.268187   6.658220   7.437785   5.964061   5.362580
    32  H    7.435124   7.061682   7.998126   6.347267   6.206522
    33  Zn   4.804202   3.928702   4.488983   3.332111   2.424981
                    6          7          8          9         10
     6  H    0.000000
     7  H    2.508477   0.000000
     8  H    3.073319   1.765363   0.000000
     9  H    6.444159   4.866703   5.836530   0.000000
    10  C    7.081924   5.644760   6.413955   1.095380   0.000000
    11  H    7.809390   6.515058   7.410482   1.774397   1.098413
    12  C    6.433798   5.399368   5.950421   2.163516   1.531557
    13  S    5.719845   5.346147   6.162000   3.026097   2.830209
    14  H    7.740448   6.071470   6.646124   1.787176   1.105419
    15  H    7.322679   6.391837   6.776998   3.072351   2.166193
    16  H    5.858589   4.709487   5.026424   2.495537   2.156333
    17  H    5.323448   6.248717   6.796164   5.928645   5.823064
    18  C    5.113679   6.463086   6.981735   6.801333   6.795530
    19  H    5.736413   7.148292   7.839309   7.259679   7.276996
    20  C    3.657689   5.304862   5.846280   6.647890   6.859704
    21  S    3.181047   4.483818   5.545379   5.746719   6.195953
    22  H    5.689132   7.138120   7.424087   7.603089   7.504530
    23  H    3.850071   5.878407   6.348980   7.686187   7.940638
    24  H    3.222129   4.751765   5.022241   6.429644   6.619394
    25  H    5.157485   5.380543   6.979554   5.140729   5.811086
    26  C    5.760242   5.560242   7.248269   4.898127   5.662474
    27  H    6.810699   6.646213   8.323496   5.429876   6.093990
    28  C    5.701694   4.908620   6.542372   3.436817   4.276466
    29  S    4.304886   3.094322   4.739168   3.128563   4.115171
    30  H    5.690467   5.494037   7.237295   5.550616   6.423141
    31  H    6.071754   5.339351   6.832531   2.956747   3.585273
    32  H    6.561137   5.481260   7.122342   3.610595   4.495226
    33  Zn   3.421764   3.192897   4.295507   3.483037   3.972690
                   11         12         13         14         15
    11  H    0.000000
    12  C    2.178887   0.000000
    13  S    3.030756   1.847793   0.000000
    14  H    1.783974   2.192891   3.815209   0.000000
    15  H    2.528389   1.101216   2.429557   2.516006   0.000000
    16  H    3.075392   1.095864   2.434188   2.512091   1.769051
    17  H    6.035238   4.580421   3.030565   6.732476   4.841338
    18  C    7.035010   5.583775   4.018233   7.714867   5.901245
    19  H    7.373925   6.183152   4.462711   8.263353   6.501270
    20  C    7.258783   5.759967   4.320220   7.755391   6.303992
    21  S    6.531545   5.454433   3.963773   7.165168   6.232340
    22  H    7.780076   6.175839   4.771533   8.353279   6.353144
    23  H    8.338331   6.856322   5.411684   8.834450   7.396781
    24  H    7.163577   5.443721   4.291299   7.410177   5.979448
    25  H    5.794658   5.787016   4.439037   6.838734   6.679991
    26  C    5.581838   5.926543   4.825767   6.630959   6.854241
    27  H    5.816163   6.441062   5.295610   7.073401   7.278100
    28  C    4.269693   4.751089   4.034987   5.182494   5.723810
    29  S    4.568437   4.390989   3.996284   4.865878   5.482824
    30  H    6.434752   6.738511   5.734165   7.323542   7.722867
    31  H    3.423786   4.000942   3.210485   4.583888   4.881629
    32  H    4.397573   5.277807   4.842125   5.265295   6.223662
    33  Zn   4.528328   3.345541   2.424299   4.851646   4.297821
                   16         17         18         19         20
    16  H    0.000000
    17  H    4.726790   0.000000
    18  C    5.638965   1.095241   0.000000
    19  H    6.384584   1.772967   1.098240   0.000000
    20  C    5.607561   2.167433   1.531610   2.178677   0.000000
    21  S    5.412089   3.043296   2.836608   3.036876   1.846034
    22  H    6.157602   1.785601   1.105530   1.783924   2.192152
    23  H    6.670203   3.073591   2.164270   2.528589   1.101261
    24  H    5.100579   2.502115   2.160790   3.078658   1.096736
    25  H    6.111966   5.067616   5.236489   5.030803   4.767235
    26  C    6.295908   5.953936   6.227664   6.057509   5.766045
    27  H    6.956868   6.428368   6.724886   6.408153   6.457592
    28  C    5.116813   5.877687   6.371903   6.418213   5.953939
    29  S    4.347472   5.736458   6.180707   6.506877   5.447543
    30  H    6.989129   6.737795   6.903975   6.754464   6.242084
    31  H    4.550821   5.299539   5.929533   5.971317   5.760863
    32  H    5.675110   6.921415   7.454859   7.490664   7.048645
    33  Zn   3.186879   3.469307   3.956745   4.506812   3.339432
                   21         22         23         24         25
    21  S    0.000000
    22  H    3.818809   0.000000
    23  H    2.426488   2.509740   0.000000
    24  H    2.426746   2.518837   1.768747   0.000000
    25  H    3.017830   6.338803   5.326627   5.341219   0.000000
    26  C    4.001398   7.330608   6.367909   6.248685   1.095110
    27  H    4.772554   7.826887   7.044162   7.039124   1.783740
    28  C    4.331107   7.435993   6.740486   6.208216   2.170095
    29  S    3.954519   7.154691   6.230365   5.408730   3.049719
    30  H    4.404782   7.994839   6.725977   6.691023   1.771133
    31  H    4.340577   6.967198   6.644785   6.026565   2.502543
    32  H    5.417253   8.513682   7.832413   7.269808   3.074316
    33  Zn   2.424745   4.839844   4.296779   3.183133   3.423663
                   26         27         28         29         30
    26  C    0.000000
    27  H    1.105336   0.000000
    28  C    1.531674   2.191478   0.000000
    29  S    2.835975   3.817656   1.845686   0.000000
    30  H    1.097962   1.784398   2.178817   3.032502   0.000000
    31  H    2.159980   2.518438   1.096623   2.428896   3.078002
    32  H    2.162929   2.506069   1.101146   2.425157   2.529132
    33  Zn   3.917207   4.801482   3.320611   2.430492   4.464848
                   31         32         33
    31  H    0.000000
    32  H    1.769468   0.000000
    33  Zn   3.168181   4.286944   0.000000
 Stoichiometry    C8H20S4Zn(2-)
 Framework group  C1[X(C8H20S4Zn)]
 Deg. of freedom    93
 Full point group                 C1      NOp   1
 Largest Abelian subgroup         C1      NOp   1
 Largest concise Abelian subgroup C1      NOp   1
                         Standard orientation:                         
 ---------------------------------------------------------------------
 Center     Atomic      Atomic             Coordinates (Angstroms)
 Number     Number       Type             X           Y           Z
 ---------------------------------------------------------------------
      1          1           0       -3.425605   -3.052771    1.508483
      2          6           0       -3.103293   -2.348309    0.720154
      3          1           0       -3.924181   -2.244398   -0.001974
      4          6           0       -1.827723   -2.830254    0.022526
      5         16           0       -1.243019   -1.687354   -1.305259
      6          1           0       -2.932130   -1.366622    1.174718
      7          1           0       -1.033454   -2.954669    0.767788
      8          1           0       -2.003871   -3.820423   -0.426058
      9          1           0        3.161088   -1.145935   -0.911228
     10          6           0        3.420512   -0.726208   -1.889177
     11          1           0        4.174830    0.056711   -1.732481
     12          6           0        2.167428   -0.149173   -2.554368
     13         16           0        1.373638    1.203299   -1.577098
     14          1           0        3.875799   -1.523156   -2.505246
     15          1           0        2.425738    0.248862   -3.548109
     16          1           0        1.437596   -0.952530   -2.705628
     17          1           0       -1.188233    2.821961   -1.609827
     18          6           0       -2.128044    3.124069   -1.135445
     19          1           0       -1.927410    4.017830   -0.529584
     20          6           0       -2.667048    1.985854   -0.263797
     21         16           0       -1.531630    1.488669    1.104221
     22          1           0       -2.847043    3.401043   -1.928240
     23          1           0       -3.628588    2.287099    0.180577
     24          1           0       -2.861124    1.106354   -0.889613
     25          1           0        0.946205    1.606904    2.822840
     26          6           0        1.841409    1.121159    3.225241
     27          1           0        2.552708    1.907560    3.537322
     28          6           0        2.459991    0.193223    2.175328
     29         16           0        1.343711   -1.173793    1.635195
     30          1           0        1.542463    0.556124    4.117926
     31          1           0        2.746423    0.779540    1.293982
     32          1           0        3.379570   -0.256370    2.581240
     33         30           0       -0.017779   -0.032947   -0.023753
 ---------------------------------------------------------------------
 Rotational constants (GHZ):           0.3695741           0.3015832           0.2974484
 Standard basis: 6-31G(d) (6D, 7F)
 There are   275 symmetry adapted cartesian basis functions of A   symmetry.
 There are   272 symmetry adapted basis functions of A   symmetry.
   272 basis functions,   616 primitive gaussians,   275 cartesian basis functions
    82 alpha electrons       82 beta electrons
       nuclear repulsion energy      1822.5393456291 Hartrees.
 NAtoms=   33 NActive=   33 NUniq=   33 SFac= 1.00D+00 NAtFMM=   60 NAOKFM=F Big=F
 Integral buffers will be    131072 words long.
 Raffenetti 2 integral format.
 Two-electron integral symmetry is turned on.
 One-electron integrals computed using PRISM.
 NBasis=   272 RedAO= T EigKep=  1.08D-03  NBF=   272
 NBsUse=   272 1.00D-06 EigRej= -1.00D+00 NBFU=   272
 Initial guess from the checkpoint file:  "1A5T_small_opt.chk"
 B after Tr=     0.000000    0.000000    0.000000
         Rot=    1.000000    0.000000    0.000000    0.000000 Ang=   0.00 deg.
 Requested convergence on RMS density matrix=1.00D-08 within 128 cycles.
 Requested convergence on MAX density matrix=1.00D-06.
 Requested convergence on             energy=1.00D-06.
 No special actions if energy rises.
 SCF Done:  E(RB3LYP) =  -3688.89833014     A.U. after    1 cycles
            NFock=  1  Conv=0.23D-08     -V/T= 2.0031
 DoSCS=F DFT=T ScalE2(SS,OS)=  1.000000  1.000000
 Range of M.O.s used for correlation:     1   272
 NBasis=   272 NAE=    82 NBE=    82 NFC=     0 NFV=     0
 NROrb=    272 NOA=    82 NOB=    82 NVA=   190 NVB=   190

 **** Warning!!: The largest alpha MO coefficient is  0.23870136D+02

 Symmetrizing basis deriv contribution to polar:
 IMax=3 JMax=2 DiffMx= 0.00D+00
 G2DrvN: will do    34 centers at a time, making    1 passes.
 Calling FoFCou, ICntrl=  3107 FMM=F I1Cent=   0 AccDes= 0.00D+00.
 End of G2Drv F.D. properties file   721 does not exist.
 End of G2Drv F.D. properties file   722 does not exist.
 End of G2Drv F.D. properties file   788 does not exist.
          IDoAtm=111111111111111111111111111111111
          Differentiating once with respect to electric field.
                with respect to dipole field.
          Differentiating once with respect to nuclear coordinates.
 Keep R1 ints in memory in canonical form, NReq=702517262.
          There are   102 degrees of freedom in the 1st order CPHF.  IDoFFX=6 NUNeed=     3.
     99 vectors produced by pass  0 Test12= 1.56D-14 1.00D-09 XBig12= 1.74D+02 3.51D+00.
 AX will form    99 AO Fock derivatives at one time.
     99 vectors produced by pass  1 Test12= 1.56D-14 1.00D-09 XBig12= 2.03D+01 6.75D-01.
     99 vectors produced by pass  2 Test12= 1.56D-14 1.00D-09 XBig12= 2.32D-01 6.78D-02.
     99 vectors produced by pass  3 Test12= 1.56D-14 1.00D-09 XBig12= 5.92D-04 2.81D-03.
     99 vectors produced by pass  4 Test12= 1.56D-14 1.00D-09 XBig12= 9.30D-07 9.23D-05.
     70 vectors produced by pass  5 Test12= 1.56D-14 1.00D-09 XBig12= 7.75D-10 2.16D-06.
      3 vectors produced by pass  6 Test12= 1.56D-14 1.00D-09 XBig12= 7.11D-13 6.53D-08.
      3 vectors produced by pass  7 Test12= 1.56D-14 1.00D-09 XBig12= 7.47D-16 2.12D-09.
 InvSVY:  IOpt=1 It=  1 EMax= 5.33D-15
 Solved reduced A of dimension   571 with   102 vectors.
 Isotropic polarizability for W=    0.000000      199.19 Bohr**3.
 End of Minotr F.D. properties file   721 does not exist.
 End of Minotr F.D. properties file   722 does not exist.
 End of Minotr F.D. properties file   788 does not exist.

 **********************************************************************

            Population analysis using the SCF density.

 **********************************************************************

 Orbital symmetries:
       Occupied  (A) (A) (A) (A) (A) (A) (A) (A) (A) (A) (A) (A)
                 (A) (A) (A) (A) (A) (A) (A) (A) (A) (A) (A) (A)
                 (A) (A) (A) (A) (A) (A) (A) (A) (A) (A) (A) (A)
                 (A) (A) (A) (A) (A) (A) (A) (A) (A) (A) (A) (A)
                 (A) (A) (A) (A) (A) (A) (A) (A) (A) (A) (A) (A)
                 (A) (A) (A) (A) (A) (A) (A) (A) (A) (A) (A) (A)
                 (A) (A) (A) (A) (A) (A) (A) (A) (A) (A)
       Virtual   (A) (A) (A) (A) (A) (A) (A) (A) (A) (A) (A) (A)
                 (A) (A) (A) (A) (A) (A) (A) (A) (A) (A) (A) (A)
                 (A) (A) (A) (A) (A) (A) (A) (A) (A) (A) (A) (A)
                 (A) (A) (A) (A) (A) (A) (A) (A) (A) (A) (A) (A)
                 (A) (A) (A) (A) (A) (A) (A) (A) (A) (A) (A) (A)
                 (A) (A) (A) (A) (A) (A) (A) (A) (A) (A) (A) (A)
                 (A) (A) (A) (A) (A) (A) (A) (A) (A) (A) (A) (A)
                 (A) (A) (A) (A) (A) (A) (A) (A) (A) (A) (A) (A)
                 (A) (A) (A) (A) (A) (A) (A) (A) (A) (A) (A) (A)
                 (A) (A) (A) (A) (A) (A) (A) (A) (A) (A) (A) (A)
                 (A) (A) (A) (A) (A) (A) (A) (A) (A) (A) (A) (A)
                 (A) (A) (A) (A) (A) (A) (A) (A) (A) (A) (A) (A)
                 (A) (A) (A) (A) (A) (A) (A) (A) (A) (A) (A) (A)
                 (A) (A) (A) (A) (A) (A) (A) (A) (A) (A) (A) (A)
                 (A) (A) (A) (A) (A) (A) (A) (A) (A) (A) (A) (A)
                 (A) (A) (A) (A) (A) (A) (A) (A) (A) (A)
 The electronic state is 1-A.
 Alpha  occ. eigenvalues -- -346.93123 -88.54831 -88.54771 -88.54719 -88.54648
 Alpha  occ. eigenvalues --  -41.89737 -36.88158 -36.88153 -36.88113  -9.95421
 Alpha  occ. eigenvalues --   -9.95145  -9.95116  -9.95027  -9.94151  -9.94150
 Alpha  occ. eigenvalues --   -9.94074  -9.93999  -7.60918  -7.60851  -7.60805
 Alpha  occ. eigenvalues --   -7.60732  -5.57478  -5.57405  -5.57360  -5.57285
 Alpha  occ. eigenvalues --   -5.56829  -5.56760  -5.56723  -5.56644  -5.56609
 Alpha  occ. eigenvalues --   -5.56551  -5.56497  -5.56429  -4.47821  -2.86984
 Alpha  occ. eigenvalues --   -2.86973  -2.86888  -0.52304  -0.52179  -0.52053
 Alpha  occ. eigenvalues --   -0.51999  -0.40938  -0.40697  -0.40630  -0.40603
 Alpha  occ. eigenvalues --   -0.31793  -0.31543  -0.31350  -0.31055  -0.20354
 Alpha  occ. eigenvalues --   -0.20219  -0.20089  -0.20036  -0.17938  -0.17868
 Alpha  occ. eigenvalues --   -0.17795  -0.17550  -0.13664  -0.13521  -0.13491
 Alpha  occ. eigenvalues --   -0.13121  -0.13093  -0.12698  -0.12642  -0.12420
 Alpha  occ. eigenvalues --   -0.12296  -0.11210  -0.10900  -0.10862  -0.10774
 Alpha  occ. eigenvalues --   -0.07009  -0.05250  -0.05184  -0.04452  -0.00698
 Alpha  occ. eigenvalues --    0.04295   0.05068   0.05082   0.06951   0.07175
 Alpha  occ. eigenvalues --    0.07417   0.07520
 Alpha virt. eigenvalues --    0.29847   0.30279   0.30579   0.30977   0.33396
 Alpha virt. eigenvalues --    0.34069   0.34662   0.34802   0.34973   0.37386
 Alpha virt. eigenvalues --    0.37505   0.37599   0.38181   0.38381   0.38938
 Alpha virt. eigenvalues --    0.39079   0.39417   0.39680   0.40272   0.40407
 Alpha virt. eigenvalues --    0.40879   0.42429   0.43266   0.44052   0.44522
 Alpha virt. eigenvalues --    0.45515   0.46188   0.46603   0.47214   0.48020
 Alpha virt. eigenvalues --    0.48234   0.49220   0.54867   0.55391   0.55843
 Alpha virt. eigenvalues --    0.60226   0.64367   0.65025   0.65398   0.65898
 Alpha virt. eigenvalues --    0.67775   0.70012   0.71631   0.72685   0.73812
 Alpha virt. eigenvalues --    0.73978   0.75070   0.75778   0.77238   0.77386
 Alpha virt. eigenvalues --    0.77960   0.78576   0.79975   0.81808   0.82876
 Alpha virt. eigenvalues --    0.83652   0.85401   0.86009   0.86590   0.87146
 Alpha virt. eigenvalues --    0.88225   0.88579   0.89175   0.89561   0.89945
 Alpha virt. eigenvalues --    0.91442   0.92622   0.93341   0.93756   0.94889
 Alpha virt. eigenvalues --    0.95441   0.96031   0.97537   0.99131   0.99204
 Alpha virt. eigenvalues --    1.04228   1.09103   1.11041   1.11237   1.11354
 Alpha virt. eigenvalues --    1.11646   1.11800   1.11990   1.12072   1.13081
 Alpha virt. eigenvalues --    1.14025   1.14245   1.15090   1.15327   1.15604
 Alpha virt. eigenvalues --    1.15735   1.17304   1.17957   1.18891   1.19332
 Alpha virt. eigenvalues --    1.20960   1.22043   1.22308   1.22599   1.23068
 Alpha virt. eigenvalues --    1.23526   1.23743   1.24497   1.24947   1.25252
 Alpha virt. eigenvalues --    1.25369   1.27102   1.27893   1.28590   1.29652
 Alpha virt. eigenvalues --    1.29883   1.30386   1.31002   1.31985   1.32881
 Alpha virt. eigenvalues --    1.35169   1.44821   1.46101   1.49555   1.49845
 Alpha virt. eigenvalues --    1.70899   1.72692   1.76010   1.76361   1.79768
 Alpha virt. eigenvalues --    1.80038   1.80701   1.80980   1.82305   1.82909
 Alpha virt. eigenvalues --    1.83024   1.83860   1.91958   2.16518   2.16660
 Alpha virt. eigenvalues --    2.16899   2.17057   2.22221   2.22564   2.23143
 Alpha virt. eigenvalues --    2.23253   2.25202   2.25373   2.25686   2.26758
 Alpha virt. eigenvalues --    2.41815   2.41914   2.45729   2.45886   2.46749
 Alpha virt. eigenvalues --    2.47647   2.50314   2.52179   2.52325   2.53846
 Alpha virt. eigenvalues --    2.54357   2.54383   2.54432   2.55147   2.55360
 Alpha virt. eigenvalues --    2.55649   2.56021   2.56293   2.56787   2.57014
 Alpha virt. eigenvalues --    2.57017   2.67665   2.67763   2.68120   2.68307
 Alpha virt. eigenvalues --    2.68365   2.68599   2.76205   2.84016   2.84133
 Alpha virt. eigenvalues --    2.84741   2.84822   4.22745   4.22792   4.23420
 Alpha virt. eigenvalues --    4.26822   4.41027   4.42051   4.45147   4.45318
 Alpha virt. eigenvalues --    4.62556   4.63045   4.63382   4.64388  47.65998
          Condensed to atoms (all electrons):
               1          2          3          4          5          6
     1  H    0.726406   0.310088  -0.039865  -0.028188   0.007046  -0.031020
     2  C    0.310088   5.205474   0.358877   0.352398  -0.071632   0.376048
     3  H   -0.039865   0.358877   0.638275  -0.037071   0.006424  -0.028497
     4  C   -0.028188   0.352398  -0.037071   5.137916   0.248877  -0.032554
     5  S    0.007046  -0.071632   0.006424   0.248877  16.239853  -0.000180
     6  H   -0.031020   0.376048  -0.028497  -0.032554  -0.000180   0.484993
     7  H   -0.000477  -0.048291   0.006141   0.370712  -0.048605  -0.005268
     8  H   -0.001270  -0.052046  -0.005483   0.348449  -0.049384   0.005583
     9  H    0.000000  -0.000000  -0.000000  -0.000000  -0.000382   0.000000
    10  C   -0.000000   0.000000  -0.000000  -0.000001   0.000173   0.000000
    11  H    0.000000  -0.000000  -0.000000   0.000000   0.000006   0.000000
    12  C    0.000000  -0.000000   0.000000   0.000021  -0.006559  -0.000000
    13  S    0.000000  -0.000012  -0.000000   0.000356  -0.024161  -0.000036
    14  H    0.000000   0.000000   0.000000  -0.000000   0.000002   0.000000
    15  H   -0.000000   0.000000  -0.000000   0.000000   0.000112  -0.000000
    16  H   -0.000000   0.000002  -0.000000  -0.000099   0.011120   0.000000
    17  H    0.000000  -0.000000  -0.000000   0.000001  -0.000086   0.000001
    18  C    0.000000  -0.000004   0.000001  -0.000000   0.000157   0.000019
    19  H    0.000000   0.000000  -0.000000  -0.000000   0.000004  -0.000000
    20  C   -0.000003  -0.000136  -0.000034  -0.000006  -0.007602   0.000156
    21  S    0.000091  -0.006181   0.000210   0.000222  -0.023592   0.011546
    22  H   -0.000000   0.000000  -0.000000   0.000000   0.000015  -0.000001
    23  H    0.000000   0.000007   0.000003  -0.000000   0.000109   0.000010
    24  H    0.000010   0.000367   0.000167  -0.000167   0.014197  -0.000224
    25  H   -0.000000   0.000000   0.000000  -0.000000  -0.000029  -0.000004
    26  C    0.000000  -0.000000  -0.000000  -0.000000  -0.000013   0.000001
    27  H   -0.000000  -0.000000   0.000000   0.000000   0.000000  -0.000000
    28  C   -0.000000  -0.000001   0.000000   0.000024   0.000266   0.000001
    29  S    0.000003  -0.000045   0.000013  -0.003137  -0.022954  -0.000418
    30  H   -0.000000   0.000000  -0.000000  -0.000000  -0.000000  -0.000000
    31  H    0.000000   0.000000  -0.000000  -0.000000  -0.000001  -0.000000
    32  H   -0.000000   0.000000   0.000000  -0.000000  -0.000012  -0.000000
    33  Zn  -0.000749   0.001976  -0.000248  -0.000013   0.201055   0.003713
               7          8          9         10         11         12
     1  H   -0.000477  -0.001270   0.000000  -0.000000   0.000000   0.000000
     2  C   -0.048291  -0.052046  -0.000000   0.000000  -0.000000  -0.000000
     3  H    0.006141  -0.005483  -0.000000  -0.000000  -0.000000   0.000000
     4  C    0.370712   0.348449  -0.000000  -0.000001   0.000000   0.000021
     5  S   -0.048605  -0.049384  -0.000382   0.000173   0.000006  -0.006559
     6  H   -0.005268   0.005583   0.000000   0.000000   0.000000  -0.000000
     7  H    0.595506  -0.044108  -0.000003  -0.000000  -0.000000   0.000004
     8  H   -0.044108   0.718684  -0.000000   0.000000   0.000000  -0.000000
     9  H   -0.000003  -0.000000   0.490434   0.376204  -0.028639  -0.032656
    10  C   -0.000000   0.000000   0.376204   5.204734   0.358201   0.350622
    11  H   -0.000000   0.000000  -0.028639   0.358201   0.640854  -0.037160
    12  C    0.000004  -0.000000  -0.032656   0.350622  -0.037160   5.152484
    13  S    0.000003  -0.000014  -0.000313  -0.068906   0.006330   0.242743
    14  H   -0.000000   0.000000  -0.031514   0.310777  -0.040117  -0.028046
    15  H   -0.000000  -0.000000   0.005628  -0.052291  -0.005267   0.347686
    16  H   -0.000017   0.000005  -0.005523  -0.046557   0.006043   0.368321
    17  H   -0.000000  -0.000000  -0.000000   0.000002  -0.000000  -0.000064
    18  C    0.000000   0.000000   0.000000  -0.000000   0.000000   0.000012
    19  H   -0.000000  -0.000000   0.000000   0.000000  -0.000000   0.000000
    20  C   -0.000003  -0.000002   0.000000   0.000000  -0.000000  -0.000000
    21  S   -0.000098  -0.000047  -0.000028  -0.000014  -0.000000   0.000342
    22  H    0.000000   0.000000  -0.000000   0.000000  -0.000000  -0.000000
    23  H    0.000000   0.000000  -0.000000  -0.000000  -0.000000   0.000000
    24  H    0.000011   0.000009   0.000000  -0.000000  -0.000000   0.000001
    25  H    0.000001  -0.000000   0.000001  -0.000001  -0.000000   0.000001
    26  C    0.000000  -0.000000   0.000035  -0.000007   0.000002   0.000000
    27  H   -0.000000   0.000000  -0.000003   0.000001  -0.000000  -0.000000
    28  C   -0.000052  -0.000000   0.000480  -0.000288  -0.000060  -0.000032
    29  S    0.007351   0.000029   0.012556  -0.007074   0.000231   0.000563
    30  H   -0.000000   0.000000  -0.000000   0.000000  -0.000000  -0.000000
    31  H    0.000001   0.000000  -0.000333   0.000766   0.000293  -0.000235
    32  H    0.000002  -0.000000   0.000044   0.000015   0.000005   0.000001
    33  Zn  -0.006333  -0.002294   0.002629   0.000477  -0.000279  -0.000047
              13         14         15         16         17         18
     1  H    0.000000   0.000000  -0.000000  -0.000000   0.000000   0.000000
     2  C   -0.000012   0.000000   0.000000   0.000002  -0.000000  -0.000004
     3  H   -0.000000   0.000000  -0.000000  -0.000000  -0.000000   0.000001
     4  C    0.000356  -0.000000   0.000000  -0.000099   0.000001  -0.000000
     5  S   -0.024161   0.000002   0.000112   0.011120  -0.000086   0.000157
     6  H   -0.000036   0.000000  -0.000000   0.000000   0.000001   0.000019
     7  H    0.000003  -0.000000  -0.000000  -0.000017  -0.000000   0.000000
     8  H   -0.000014   0.000000  -0.000000   0.000005  -0.000000   0.000000
     9  H   -0.000313  -0.031514   0.005628  -0.005523  -0.000000   0.000000
    10  C   -0.068906   0.310777  -0.052291  -0.046557   0.000002  -0.000000
    11  H    0.006330  -0.040117  -0.005267   0.006043  -0.000000   0.000000
    12  C    0.242743  -0.028046   0.347686   0.368321  -0.000064   0.000012
    13  S   16.245843   0.006745  -0.049374  -0.048724   0.011363  -0.006025
    14  H    0.006745   0.727377  -0.001495  -0.000467  -0.000000   0.000000
    15  H   -0.049374  -0.001495   0.719548  -0.042787  -0.000010   0.000001
    16  H   -0.048724  -0.000467  -0.042787   0.584127  -0.000011   0.000001
    17  H    0.011363  -0.000000  -0.000010  -0.000011   0.491613   0.378231
    18  C   -0.006025   0.000000   0.000001   0.000001   0.378231   5.201873
    19  H    0.000225  -0.000000   0.000000  -0.000000  -0.029332   0.359544
    20  C    0.000411  -0.000000  -0.000000   0.000001  -0.032341   0.349593
    21  S   -0.025384   0.000000  -0.000012   0.000008  -0.001703  -0.070688
    22  H    0.000073  -0.000000  -0.000000  -0.000000  -0.032193   0.310851
    23  H   -0.000040   0.000000  -0.000000  -0.000000   0.005544  -0.051662
    24  H   -0.000561   0.000000   0.000000  -0.000003  -0.005446  -0.046607
    25  H   -0.000051   0.000000   0.000000  -0.000000  -0.000002  -0.000007
    26  C    0.000148  -0.000000   0.000000   0.000000   0.000000   0.000000
    27  H    0.000015  -0.000000   0.000000   0.000000  -0.000000  -0.000000
    28  C   -0.008318  -0.000006  -0.000003  -0.000007   0.000001  -0.000000
    29  S   -0.023794   0.000092  -0.000047  -0.000164  -0.000024  -0.000014
    30  H    0.000006   0.000000  -0.000000  -0.000000   0.000000  -0.000000
    31  H    0.015360   0.000019   0.000014   0.000019  -0.000002   0.000000
    32  H    0.000136   0.000000   0.000000   0.000000  -0.000000  -0.000000
    33  Zn   0.196795  -0.000382  -0.001976  -0.004415   0.004164  -0.000489
              19         20         21         22         23         24
     1  H    0.000000  -0.000003   0.000091  -0.000000   0.000000   0.000010
     2  C    0.000000  -0.000136  -0.006181   0.000000   0.000007   0.000367
     3  H   -0.000000  -0.000034   0.000210  -0.000000   0.000003   0.000167
     4  C   -0.000000  -0.000006   0.000222   0.000000  -0.000000  -0.000167
     5  S    0.000004  -0.007602  -0.023592   0.000015   0.000109   0.014197
     6  H   -0.000000   0.000156   0.011546  -0.000001   0.000010  -0.000224
     7  H   -0.000000  -0.000003  -0.000098   0.000000   0.000000   0.000011
     8  H   -0.000000  -0.000002  -0.000047   0.000000   0.000000   0.000009
     9  H    0.000000   0.000000  -0.000028  -0.000000  -0.000000   0.000000
    10  C    0.000000   0.000000  -0.000014   0.000000  -0.000000  -0.000000
    11  H   -0.000000  -0.000000  -0.000000  -0.000000  -0.000000  -0.000000
    12  C    0.000000  -0.000000   0.000342  -0.000000   0.000000   0.000001
    13  S    0.000225   0.000411  -0.025384   0.000073  -0.000040  -0.000561
    14  H   -0.000000  -0.000000   0.000000  -0.000000   0.000000   0.000000
    15  H    0.000000  -0.000000  -0.000012  -0.000000  -0.000000   0.000000
    16  H   -0.000000   0.000001   0.000008  -0.000000  -0.000000  -0.000003
    17  H   -0.029332  -0.032341  -0.001703  -0.032193   0.005544  -0.005446
    18  C    0.359544   0.349593  -0.070688   0.310851  -0.051662  -0.046607
    19  H    0.637982  -0.037024   0.006145  -0.040164  -0.005299   0.005986
    20  C   -0.037024   5.164456   0.239588  -0.028008   0.346697   0.363566
    21  S    0.006145   0.239588  16.253438   0.006874  -0.048245  -0.046530
    22  H   -0.040164  -0.028008   0.006874   0.728484  -0.001749  -0.000428
    23  H   -0.005299   0.346697  -0.048245  -0.001749   0.718783  -0.042300
    24  H    0.005986   0.363566  -0.046530  -0.000428  -0.042300   0.585419
    25  H    0.000003  -0.000064   0.008286   0.000000   0.000001   0.000003
    26  C   -0.000001   0.000019  -0.003359  -0.000000  -0.000000  -0.000001
    27  H    0.000000  -0.000000   0.000006  -0.000000  -0.000000   0.000000
    28  C    0.000000  -0.000000   0.000243   0.000000  -0.000000   0.000000
    29  S    0.000000   0.000350  -0.025378   0.000000  -0.000012  -0.000006
    30  H    0.000000  -0.000000   0.000099   0.000000   0.000000   0.000000
    31  H   -0.000000   0.000001  -0.000515  -0.000000  -0.000000  -0.000000
    32  H   -0.000000   0.000000  -0.000037   0.000000  -0.000000  -0.000000
    33  Zn   0.000248   0.001683   0.192918   0.000106  -0.002161  -0.005216
              25         26         27         28         29         30
     1  H   -0.000000   0.000000  -0.000000  -0.000000   0.000003  -0.000000
     2  C    0.000000  -0.000000  -0.000000  -0.000001  -0.000045   0.000000
     3  H    0.000000  -0.000000   0.000000   0.000000   0.000013  -0.000000
     4  C   -0.000000  -0.000000   0.000000   0.000024  -0.003137  -0.000000
     5  S   -0.000029  -0.000013   0.000000   0.000266  -0.022954  -0.000000
     6  H   -0.000004   0.000001  -0.000000   0.000001  -0.000418  -0.000000
     7  H    0.000001   0.000000  -0.000000  -0.000052   0.007351  -0.000000
     8  H   -0.000000  -0.000000   0.000000  -0.000000   0.000029   0.000000
     9  H    0.000001   0.000035  -0.000003   0.000480   0.012556  -0.000000
    10  C   -0.000001  -0.000007   0.000001  -0.000288  -0.007074   0.000000
    11  H   -0.000000   0.000002  -0.000000  -0.000060   0.000231  -0.000000
    12  C    0.000001   0.000000  -0.000000  -0.000032   0.000563  -0.000000
    13  S   -0.000051   0.000148   0.000015  -0.008318  -0.023794   0.000006
    14  H    0.000000  -0.000000  -0.000000  -0.000006   0.000092   0.000000
    15  H    0.000000   0.000000   0.000000  -0.000003  -0.000047  -0.000000
    16  H   -0.000000   0.000000   0.000000  -0.000007  -0.000164  -0.000000
    17  H   -0.000002   0.000000  -0.000000   0.000001  -0.000024   0.000000
    18  C   -0.000007   0.000000  -0.000000  -0.000000  -0.000014  -0.000000
    19  H    0.000003  -0.000001   0.000000   0.000000   0.000000   0.000000
    20  C   -0.000064   0.000019  -0.000000  -0.000000   0.000350  -0.000000
    21  S    0.008286  -0.003359   0.000006   0.000243  -0.025378   0.000099
    22  H    0.000000  -0.000000  -0.000000   0.000000   0.000000   0.000000
    23  H    0.000001  -0.000000  -0.000000  -0.000000  -0.000012   0.000000
    24  H    0.000003  -0.000001   0.000000   0.000000  -0.000006   0.000000
    25  H    0.496119   0.379686  -0.032549  -0.032310  -0.001463  -0.029985
    26  C    0.379686   5.195889   0.311922   0.349901  -0.071993   0.360838
    27  H   -0.032549   0.311922   0.725512  -0.028193   0.006928  -0.039878
    28  C   -0.032310   0.349901  -0.028193   5.157177   0.251919  -0.036591
    29  S   -0.001463  -0.071993   0.006928   0.251919  16.240347   0.006043
    30  H   -0.029985   0.360838  -0.039878  -0.036591   0.006043   0.633974
    31  H   -0.005641  -0.047321  -0.000242   0.363359  -0.048598   0.005997
    32  H    0.005642  -0.051737  -0.001783   0.347148  -0.049663  -0.005180
    33  Zn   0.003495   0.000061   0.000055  -0.003809   0.203581   0.000258
              31         32         33
     1  H    0.000000  -0.000000  -0.000749
     2  C    0.000000   0.000000   0.001976
     3  H   -0.000000   0.000000  -0.000248
     4  C   -0.000000  -0.000000  -0.000013
     5  S   -0.000001  -0.000012   0.201055
     6  H   -0.000000  -0.000000   0.003713
     7  H    0.000001   0.000002  -0.006333
     8  H    0.000000  -0.000000  -0.002294
     9  H   -0.000333   0.000044   0.002629
    10  C    0.000766   0.000015   0.000477
    11  H    0.000293   0.000005  -0.000279
    12  C   -0.000235   0.000001  -0.000047
    13  S    0.015360   0.000136   0.196795
    14  H    0.000019   0.000000  -0.000382
    15  H    0.000014   0.000000  -0.001976
    16  H    0.000019   0.000000  -0.004415
    17  H   -0.000002  -0.000000   0.004164
    18  C    0.000000  -0.000000  -0.000489
    19  H   -0.000000  -0.000000   0.000248
    20  C    0.000001   0.000000   0.001683
    21  S   -0.000515  -0.000037   0.192918
    22  H   -0.000000   0.000000   0.000106
    23  H   -0.000000  -0.000000  -0.002161
    24  H   -0.000000  -0.000000  -0.005216
    25  H   -0.005641   0.005642   0.003495
    26  C   -0.047321  -0.051737   0.000061
    27  H   -0.000242  -0.001783   0.000055
    28  C    0.363359   0.347148  -0.003809
    29  S   -0.048598  -0.049663   0.203581
    30  H    0.005997  -0.005180   0.000258
    31  H    0.584890  -0.041872  -0.004787
    32  H   -0.041872   0.718466  -0.001919
    33  Zn  -0.004787  -0.001919  28.708106
 Mulliken charges:
               1
     1  H    0.057927
     2  C   -0.426888
     3  H    0.101088
     4  C   -0.357738
     5  S   -0.474225
     6  H    0.216132
     7  H    0.173522
     8  H    0.081888
     9  H    0.211384
    10  C   -0.426834
    11  H    0.099558
    12  C   -0.358002
    13  S   -0.470836
    14  H    0.057015
    15  H    0.080274
    16  H    0.179128
    17  H    0.210293
    18  C   -0.424789
    19  H    0.101681
    20  C   -0.361295
    21  S   -0.468203
    22  H    0.056139
    23  H    0.080314
    24  H    0.177750
    25  H    0.208865
    26  C   -0.424074
    27  H    0.058207
    28  C   -0.360849
    29  S   -0.475221
    30  H    0.104419
    31  H    0.178827
    32  H    0.080743
    33  Zn   0.513799
 Sum of Mulliken charges =  -2.00000
 Mulliken charges with hydrogens summed into heavy atoms:
               1
     2  C   -0.051740
     4  C   -0.102328
     5  S   -0.474225
    10  C   -0.058877
    12  C   -0.098600
    13  S   -0.470836
    18  C   -0.056675
    20  C   -0.103231
    21  S   -0.468203
    26  C   -0.052582
    28  C   -0.101280
    29  S   -0.475221
    33  Zn   0.513799
 APT charges:
               1
     1  H   -0.143524
     2  C    0.085708
     3  H   -0.056874
     4  C    0.222595
     5  S   -0.722697
     6  H    0.037108
     7  H   -0.047314
     8  H   -0.148554
     9  H    0.035709
    10  C    0.086735
    11  H   -0.057982
    12  C    0.205357
    13  S   -0.727785
    14  H   -0.146954
    15  H   -0.149573
    16  H   -0.031609
    17  H    0.034895
    18  C    0.096595
    19  H   -0.060535
    20  C    0.204929
    21  S   -0.746313
    22  H   -0.145929
    23  H   -0.148472
    24  H   -0.035992
    25  H    0.023973
    26  C    0.102103
    27  H   -0.142005
    28  C    0.213166
    29  S   -0.749832
    30  H   -0.057668
    31  H   -0.031783
    32  H   -0.144995
    33  Zn   1.147518
 Sum of APT charges =  -2.00000
 APT charges with hydrogens summed into heavy atoms:
               1
     2  C   -0.077583
     4  C    0.026727
     5  S   -0.722697
    10  C   -0.082493
    12  C    0.024175
    13  S   -0.727785
    18  C   -0.074974
    20  C    0.020465
    21  S   -0.746313
    26  C   -0.073596
    28  C    0.036388
    29  S   -0.749832
    33  Zn   1.147518
 Electronic spatial extent (au):  <R**2>=           5196.4043
 Charge=             -2.0000 electrons
 Dipole moment (field-independent basis, Debye):
    X=              0.1483    Y=             -0.1479    Z=             -0.0224  Tot=              0.2106
 Quadrupole moment (field-independent basis, Debye-Ang):
   XX=           -165.5677   YY=           -163.7554   ZZ=           -164.0657
   XY=              0.7080   XZ=              0.7418   YZ=              0.1123
 Traceless Quadrupole moment (field-independent basis, Debye-Ang):
   XX=             -1.1047   YY=              0.7075   ZZ=              0.3972
   XY=              0.7080   XZ=              0.7418   YZ=              0.1123
 Octapole moment (field-independent basis, Debye-Ang**2):
  XXX=             -2.8006  YYY=            -10.5754  ZZZ=            -13.1833  XYY=             17.3490
  XXY=              4.5701  XXZ=              2.8682  XZZ=            -13.8808  YZZ=             -2.0670
  YYZ=              6.5776  XYZ=             19.1978
 Hexadecapole moment (field-independent basis, Debye-Ang**3):
 XXXX=          -3465.0544 YYYY=          -2423.9688 ZZZZ=          -2348.7851 XXXY=             -1.6111
 XXXZ=             50.2463 YYYX=             15.6516 YYYZ=             15.6219 ZZZX=            -26.8586
 ZZZY=            -13.1000 XXYY=          -1045.1744 XXZZ=          -1020.2340 YYZZ=           -845.8018
 XXYZ=              2.1794 YYXZ=            -11.3132 ZZXY=             -5.4821
 N-N= 1.822539345629D+03 E-N=-1.246836240650D+04  KE= 3.677497835609D+03
  Exact polarizability: 211.479  -1.676 193.993  -0.726  -0.694 192.113
 Approx polarizability: 281.059  -0.435 281.507   0.863  -1.425 279.749
 SCFChk:  SCF convergence  2.26D-09 required  1.00D-08
 Entering OneElI...
 Calculate overlap and kinetic energy integrals
    NBasis = 275  MinDer = 2  MaxDer = 2
 Requested accuracy = 0.1000D-12
 PrmmSu-InSpLW:  IPartL=    0 NPrtUS=   12 NPrtUL=    1 DoSpLW=F IThBeg=    0 IThEnd=   11 NThAct=   12.
 PrsmSu:  NPrtUS=  12 ThrOK=T IAlg=1 NPAlg=1 LenDen=           0 ISkipM=0 DoSpLW=F IThBeg=    0 IThEnd=   11.
 Prism:   IPart=     0 DynPar=F LinDyn=F Incr=           4.
 PRISM was handed   111606956 working-precision words and  4881 shell-pairs
 PRISM was handed   111606956 working-precision words and  4881 shell-pairs
 PRISM was handed   111606956 working-precision words and  4881 shell-pairs
 PRISM was handed   111606956 working-precision words and  4881 shell-pairs
 PRISM was handed   111606956 working-precision words and  4881 shell-pairs
 PRISM was handed   111606956 working-precision words and  4881 shell-pairs
 PRISM was handed   111606956 working-precision words and  4881 shell-pairs
 PRISM was handed   111606956 working-precision words and  4881 shell-pairs
 PRISM was handed   111606956 working-precision words and  4881 shell-pairs
 PRISM was handed   111606956 working-precision words and  4881 shell-pairs
 PRISM was handed   111606956 working-precision words and  4881 shell-pairs
 PRISM was handed   111606956 working-precision words and  4881 shell-pairs
 IPart= 10 NShTot=         380 NBatch=          49 AvBLen=         7.8
 IPart= 11 NShTot=         379 NBatch=          49 AvBLen=         7.7
 IPart=  9 NShTot=         384 NBatch=          50 AvBLen=         7.7
 IPart=  8 NShTot=         387 NBatch=          51 AvBLen=         7.6
 IPart=  7 NShTot=         394 NBatch=          52 AvBLen=         7.6
 IPart=  6 NShTot=         403 NBatch=          54 AvBLen=         7.5
 IPart=  5 NShTot=         409 NBatch=          57 AvBLen=         7.2
 IPart=  4 NShTot=         415 NBatch=          58 AvBLen=         7.2
 IPart=  2 NShTot=         426 NBatch=          65 AvBLen=         6.6
 IPart=  3 NShTot=         423 NBatch=          65 AvBLen=         6.5
 IPart=  1 NShTot=         431 NBatch=          68 AvBLen=         6.3
 IPart=  0 NShTot=         450 NBatch=          76 AvBLen=         5.9
 PrSmSu:  NxtVal=             49.
 Entering OneElI...
 Calculate potential energy integrals
    NBasis = 275  MinDer = 2  MaxDer = 2
 Requested accuracy = 0.1000D-12
 PrmmSu-InSpLW:  IPartL=    0 NPrtUS=   12 NPrtUL=    1 DoSpLW=F IThBeg=    0 IThEnd=   11 NThAct=   12.
 PrsmSu:  NPrtUS=  12 ThrOK=T IAlg=1 NPAlg=1 LenDen=           0 ISkipM=0 DoSpLW=F IThBeg=    0 IThEnd=   11.
 Prism:   IPart=     0 DynPar=F LinDyn=F Incr=         105.
 PRISM was handed   111676786 working-precision words and  3847 shell-pairs
 PRISM was handed   111676786 working-precision words and  3847 shell-pairs
 PRISM was handed   111676786 working-precision words and  3847 shell-pairs
 PRISM was handed   111676786 working-precision words and  3847 shell-pairs
 PRISM was handed   111676786 working-precision words and  3847 shell-pairs
 PRISM was handed   111676786 working-precision words and  3847 shell-pairs
 PRISM was handed   111676786 working-precision words and  3847 shell-pairs
 PRISM was handed   111676786 working-precision words and  3847 shell-pairs
 PRISM was handed   111676786 working-precision words and  3847 shell-pairs
 PRISM was handed   111676786 working-precision words and  3847 shell-pairs
 PRISM was handed   111676786 working-precision words and  3847 shell-pairs
 PRISM was handed   111676786 working-precision words and  3847 shell-pairs
 IPart= 11 NShTot=        9702 NBatch=         294 AvBLen=        33.0
 IPart=  9 NShTot=        9801 NBatch=         297 AvBLen=        33.0
 IPart= 10 NShTot=        9735 NBatch=         295 AvBLen=        33.0
 IPart=  8 NShTot=        9966 NBatch=         302 AvBLen=        33.0
 IPart=  7 NShTot=       10263 NBatch=         311 AvBLen=        33.0
 IPart=  6 NShTot=       10395 NBatch=         316 AvBLen=        32.9
 IPart=  4 NShTot=       10758 NBatch=         327 AvBLen=        32.9
 IPart=  5 NShTot=       10560 NBatch=         321 AvBLen=        32.9
 IPart=  2 NShTot=       11220 NBatch=         341 AvBLen=        32.9
 IPart=  3 NShTot=       11121 NBatch=         338 AvBLen=        32.9
 IPart=  1 NShTot=       11517 NBatch=         350 AvBLen=        32.9
 IPart=  0 NShTot=       11913 NBatch=         363 AvBLen=        32.8
 PrSmSu:  NxtVal=           1261.
 Polarizability after L701:
                1             2             3 
      1  0.211479D+03
      2 -0.167616D+01  0.193993D+03
      3 -0.725997D+00 -0.694407D+00  0.192113D+03
 Dipole Derivatives after L701:
                 1             2             3             4             5 
      1  -0.118122D+00 -0.119488D+00  0.187279D+00  0.106489D+00 -0.120665D-01
      2  -0.105696D+00 -0.131000D+00  0.195318D+00  0.471536D-01  0.323305D-01
      3   0.135689D+00  0.172240D+00 -0.181452D+00  0.149358D-01 -0.810342D-01
                 6             7             8             9            10 
      1   0.743634D-01 -0.150440D+00  0.196388D-01 -0.148508D+00  0.156525D+00
      2  -0.955681D-01 -0.105996D-02  0.327409D-01 -0.640012D-02  0.125119D+00
      3   0.118304D+00 -0.774518D-01  0.144660D-01 -0.529242D-01 -0.893053D-01
                11            12            13            14            15 
      1   0.115014D+00 -0.217362D+00 -0.744903D+00 -0.196382D+00  0.772969D-02
      2   0.312906D+00 -0.148949D+00 -0.192516D+00 -0.771768D+00 -0.171859D+00
      3  -0.595310D-01  0.198353D+00 -0.625771D-01 -0.110840D+00 -0.651422D+00
                16            17            18            19            20 
      1   0.656711D-01  0.390160D-01 -0.175645D-01 -0.483804D-01  0.650846D-01
      2   0.292250D-01  0.238243D-01 -0.507534D-01  0.275727D-01  0.192791D-01
      3  -0.146649D-01 -0.544144D-01  0.218278D-01 -0.157454D-01  0.817119D-01
                21            22            23            24            25 
      1  -0.271873D-01 -0.543018D-01 -0.107129D+00  0.546063D-01  0.790175D-01
      2   0.100870D+00 -0.117645D+00 -0.362006D+00 -0.137069D-01 -0.180676D-01
      3  -0.112839D+00  0.290363D-01 -0.504756D-01 -0.293543D-01 -0.326519D-01
                26            27            28            29            30 
      1  -0.165886D-01 -0.370894D-01  0.108152D+00  0.644932D-01  0.189196D-01
      2   0.230422D-01  0.480783D-01  0.146507D-02  0.131657D+00  0.742873D-01
      3   0.407715D-01  0.506593D-02 -0.431041D-01  0.992809D-01  0.203952D-01
                31            32            33            34            35 
      1  -0.132638D+00 -0.156430D+00 -0.318111D-01  0.174336D+00 -0.256592D+00
      2  -0.813565D-01 -0.693208D-01 -0.217066D-01 -0.107293D+00  0.177419D+00
      3  -0.140022D-01 -0.750468D-02  0.280117D-01 -0.121155D+00  0.113083D+00
                36            37            38            39            40 
      1  -0.118349D+00 -0.801274D+00  0.318022D-02  0.181279D+00 -0.173345D+00
      2   0.519378D-01 -0.732880D-01 -0.644515D+00  0.106333D+00  0.167405D+00
      3   0.264318D+00  0.177245D+00  0.162844D+00 -0.737567D+00  0.106958D+00
                41            42            43            44            45 
      1   0.221683D+00  0.115553D+00 -0.897567D-01  0.572673D-01  0.133701D+00
      2  -0.180963D+00 -0.142842D+00  0.301176D-01 -0.212491D-01  0.403678D-01
      3  -0.161949D+00 -0.865547D-01  0.146156D+00  0.970492D-02 -0.337714D+00
                46            47            48            49            50 
      1  -0.526052D-02  0.738792D-02 -0.726104D-01  0.126350D-01 -0.226477D-01
      2   0.131892D-01 -0.115007D+00 -0.764292D-01 -0.308647D-01  0.776072D-01
      3  -0.380687D-01 -0.952455D-01  0.254402D-01  0.474591D-01 -0.160185D-01
                51            52            53            54            55 
      1   0.401121D-01  0.523685D-01 -0.342418D-01  0.109641D+00  0.259930D-01
      2  -0.156598D-01  0.155916D-01  0.123171D+00  0.672032D-01 -0.385698D-01
      3   0.144439D-01  0.776184D-01  0.122570D-01  0.114244D+00 -0.144212D-01
                56            57            58            59            60 
      1  -0.147841D-01 -0.512103D-02  0.259118D+00 -0.971130D-01  0.150842D+00
      2  -0.182007D+00 -0.136215D+00 -0.123140D+00  0.129477D+00 -0.231276D+00
      3  -0.587940D-01 -0.255902D-01  0.433539D-01 -0.133932D+00  0.226192D+00
                61            62            63            64            65 
      1  -0.744602D+00  0.178808D+00  0.817559D-01 -0.129923D+00  0.892506D-01
      2   0.188118D+00 -0.825770D+00 -0.509097D-01  0.113094D+00 -0.957996D-01
      3   0.102237D+00 -0.375805D-01 -0.668566D+00 -0.175454D+00  0.132445D+00
                66            67            68            69            70 
      1  -0.196832D+00 -0.344916D+00  0.138288D+00  0.814905D-03 -0.647296D-02
      2   0.186546D+00  0.134926D+00 -0.572528D-01  0.507363D-01 -0.792493D-01
      3  -0.212065D+00  0.452796D-01  0.347170D-01 -0.432481D-01 -0.669158D-01
                71            72            73            74            75 
      1  -0.505677D-01 -0.998447D-01 -0.671382D-02  0.474105D-01 -0.379463D-02
      2  -0.154438D-02 -0.152145D-01  0.508214D-01  0.134696D-01  0.254719D-01
      3  -0.103642D-01 -0.999573D-01  0.627459D-02  0.268567D-01  0.651631D-01
                76            77            78            79            80 
      1   0.732230D-01  0.103977D+00  0.313694D-01 -0.117429D+00 -0.179513D+00
      2   0.694322D-01  0.103213D+00 -0.841622D-02 -0.165911D+00 -0.211090D+00
      3  -0.134308D-01 -0.604436D-01  0.129873D+00 -0.112093D+00 -0.193002D+00
                81            82            83            84            85 
      1  -0.849903D-01  0.256028D+00  0.143313D+00  0.100252D+00 -0.716978D+00
      2  -0.139558D+00  0.534271D-01  0.240395D+00  0.120566D+00  0.850060D-01
      3  -0.974949D-01  0.143363D+00  0.247861D+00  0.143075D+00 -0.181888D+00
                86            87            88            89            90 
      1   0.820132D-01 -0.172162D+00  0.193851D-01 -0.181659D-01  0.359622D-01
      2  -0.678316D+00  0.508096D-01 -0.181053D-01 -0.161542D-01  0.497379D-01
      3   0.564947D-01 -0.854202D+00  0.608935D-01  0.124989D+00 -0.176233D+00
                91            92            93            94            95 
      1  -0.190290D-01 -0.986166D-01  0.554148D-01 -0.309375D+00  0.646683D-02
      2  -0.645340D-01 -0.909073D-01  0.583248D-02  0.510791D-01 -0.458319D-01
      3   0.829315D-01  0.449603D-02  0.145879D-01 -0.158750D+00 -0.463244D-01
                96            97            98            99 
      1  -0.160792D+00  0.132492D+01 -0.196445D-02  0.144213D-01
      2  -0.271021D-01  0.145534D-01  0.105997D+01  0.178469D+00
      3  -0.797791D-01  0.122485D-01 -0.156765D+00  0.105767D+01
 Hessian after L701:
                1             2             3             4             5 
      1  0.503323D+01
      2 -0.814359D+00  0.437298D+01
      3  0.887723D+00  0.136306D+01  0.387652D+01
      4 -0.551346D+01  0.545347D+00 -0.627193D+00  0.209586D+02
      5  0.640845D+00 -0.449114D+01 -0.147874D+01 -0.863294D+00  0.224706D+02
      6 -0.764448D+00 -0.154030D+01 -0.400628D+01  0.119661D+01 -0.885896D+00
      7  0.267862D+00  0.144209D+00 -0.243340D+00 -0.434487D+01 -0.537596D+00
      8  0.988933D-01  0.143439D+00  0.314829D+00 -0.308535D+00 -0.646261D+01
      9 -0.172030D+00  0.336388D+00 -0.300169D+00  0.179607D+01 -0.414736D+00
     10 -0.558380D-01  0.111560D-01  0.191078D+00 -0.441463D+01 -0.128485D+01
     11  0.354705D-01  0.237062D+00 -0.616223D-01 -0.172481D+01 -0.846979D+01
     12  0.206235D+00 -0.415622D-01  0.523532D-01 -0.271758D+01  0.831472D+00
     13  0.196552D-01  0.108869D+00 -0.161898D+00  0.599603D+00 -0.147248D+00
     14  0.112187D+00  0.146386D-01 -0.161463D+00 -0.248571D+00 -0.377683D+00
     15 -0.177009D+00 -0.172120D+00  0.178923D+00 -0.150512D+00  0.512580D+00
     16  0.214771D+00 -0.158574D+00  0.273219D-01 -0.736442D+01  0.467211D+00
     17 -0.211236D+00 -0.383929D+00  0.136004D+00  0.944817D+00 -0.329551D+01
     18  0.351400D-01  0.126735D+00  0.260593D+00  0.515969D+00  0.206612D+01
     19 -0.117759D-01  0.323546D-02 -0.131717D-03 -0.604699D+00  0.170077D+00
     20  0.578758D-03  0.965314D-03 -0.131504D-02  0.310636D+00  0.363815D+00
     21  0.904400D-02  0.190146D-02 -0.332204D-02 -0.706849D-01  0.124641D-01
     22 -0.679971D-02  0.568458D-02  0.145650D-01  0.215142D+00  0.282317D+00
     23  0.635638D-02  0.103647D-02 -0.543959D-02  0.371981D+00 -0.179091D-01
     24  0.145142D-01 -0.940434D-02 -0.116065D-01  0.271260D+00 -0.334847D+00
     25  0.148249D-03  0.721197D-04 -0.997970D-04  0.237655D-02  0.102074D-02
     26 -0.320195D-03 -0.715803D-03  0.495450D-03 -0.119135D-02 -0.376964D-02
     27  0.962160D-03  0.115752D-02 -0.160850D-02  0.331360D-02  0.236250D-02
     28  0.236059D-02  0.248448D-02 -0.318262D-02  0.188220D-01  0.118859D-01
     29  0.210715D-02  0.147416D-03 -0.223521D-02  0.108846D-01 -0.133595D-01
     30 -0.328889D-02 -0.280108D-02  0.161645D-02 -0.192735D-01 -0.817523D-02
     31  0.826911D-03  0.111448D-02 -0.116047D-02  0.368468D-02  0.360666D-02
     32  0.799762D-03  0.797446D-03 -0.103020D-02  0.301347D-02  0.952238D-03
     33 -0.110822D-03 -0.412742D-04 -0.117463D-03 -0.878599D-03 -0.314972D-03
     34  0.335107D-02  0.497195D-02 -0.636296D-02  0.202951D-01  0.254639D-01
     35  0.272249D-02  0.470376D-03 -0.323476D-02  0.171989D-01 -0.131466D-01
     36 -0.237637D-02 -0.176971D-02  0.207627D-03 -0.222919D-01 -0.109372D-01
     37  0.424219D-02  0.118785D-01 -0.103950D-01  0.302056D-01  0.996360D-01
     38  0.929293D-02  0.541250D-02 -0.989596D-02  0.763609D-01  0.704516D-02
     39 -0.731560D-02 -0.890469D-02  0.202511D-02 -0.547594D-01 -0.555759D-01
     40  0.638229D-03  0.663873D-03 -0.950600D-03  0.315659D-02  0.140289D-02
     41 -0.401642D-03 -0.697361D-03  0.651097D-03 -0.135761D-02 -0.268974D-02
     42 -0.727301D-03 -0.681831D-03  0.738215D-03 -0.330028D-02 -0.110276D-02
     43  0.176091D-03  0.402869D-03 -0.509909D-03  0.938522D-03  0.203626D-02
     44  0.501375D-03  0.554409D-03 -0.836770D-03  0.213798D-02  0.334588D-03
     45 -0.893114D-03 -0.116089D-02  0.124210D-02 -0.387048D-02 -0.394949D-02
     46 -0.602770D-03 -0.800570D-03  0.763128D-03 -0.159715D-02 -0.727235D-03
     47 -0.570521D-03 -0.104631D-02  0.942956D-03 -0.142241D-02 -0.555455D-02
     48 -0.754760D-03 -0.541618D-03  0.593436D-03 -0.533020D-02 -0.227630D-02
     49  0.621232D-03  0.216476D-02 -0.187236D-02 -0.185623D-02  0.129990D-01
     50  0.100779D-03 -0.132604D-03 -0.300148D-04  0.206563D-02  0.103946D-02
     51 -0.591399D-03 -0.137533D-02  0.852133D-03 -0.174543D-02 -0.868331D-02
     52 -0.262286D-02  0.637900D-03 -0.117308D-03 -0.310920D-01  0.954895D-02
     53  0.216991D-02  0.481566D-02 -0.459075D-02  0.101193D-01  0.492618D-01
     54 -0.737727D-03 -0.291413D-02 -0.103832D-02 -0.493138D-02 -0.253030D-01
     55 -0.970825D-04  0.486856D-03 -0.341319D-03 -0.291453D-02  0.315222D-02
     56  0.789046D-03  0.210942D-02 -0.158826D-02  0.621222D-03  0.130964D-01
     57  0.242416D-03  0.687863D-03 -0.837633D-03 -0.630793D-03  0.313422D-02
     58 -0.427306D-02  0.508973D-02 -0.325474D-02 -0.764645D-01  0.356995D-01
     59  0.492527D-02  0.151343D-01 -0.119150D-01  0.795648D-02  0.166851D+00
     60 -0.162049D-02 -0.713993D-02 -0.159608D-02 -0.419469D-02 -0.538973D-01
     61 -0.832931D-02  0.232504D-01 -0.695590D-02 -0.135929D+00  0.167611D+00
     62  0.268868D-01  0.443791D-01 -0.195851D-01  0.112650D+00  0.205297D+00
     63 -0.324875D-02 -0.786007D-02 -0.143163D-01 -0.172780D-03  0.251793D-01
     64 -0.517394D-03 -0.807563D-03  0.778435D-03 -0.231253D-02 -0.437363D-02
     65  0.287579D-03  0.987009D-03 -0.101755D-02 -0.817963D-03  0.758083D-02
     66 -0.370697D-03 -0.149349D-02  0.101806D-02  0.132978D-02 -0.970327D-02
     67 -0.963361D-03 -0.202458D-02  0.134578D-02 -0.417190D-02 -0.157080D-01
     68  0.178746D-03  0.221096D-02 -0.138421D-02 -0.544960D-02  0.209976D-01
     69  0.219732D-03  0.728882D-03 -0.121590D-02 -0.200385D-02  0.546689D-02
     70 -0.100334D-02  0.235885D-03  0.796507D-05 -0.166714D-01  0.402449D-02
     71 -0.149175D-03 -0.635168D-03  0.209865D-03  0.623044D-02  0.893401D-02
     72 -0.701065D-03 -0.352969D-02  0.168997D-02 -0.144459D-02 -0.380174D-01
     73 -0.946052D-03 -0.109832D-02  0.975748D-03 -0.302362D-02 -0.201875D-02
     74  0.133185D-02  0.157847D-02 -0.838452D-03  0.643761D-02  0.559353D-02
     75 -0.434010D-03 -0.752952D-03  0.183458D-03  0.155785D-03 -0.931672D-03
     76  0.395595D-02  0.769595D-02 -0.224168D-02  0.165879D-01  0.391580D-01
     77  0.387940D-02  0.143530D-02 -0.480428D-03  0.225139D-01 -0.524088D-02
     78  0.953502D-03  0.785038D-03 -0.226160D-02  0.156129D-01  0.146758D-01
     79  0.704757D-03  0.126185D-02 -0.655407D-03  0.200752D-02  0.506619D-02
     80  0.884638D-03  0.102571D-02 -0.659970D-03  0.332082D-02  0.251181D-02
     81  0.330650D-03  0.451458D-03 -0.441761D-03  0.187294D-02  0.237208D-02
     82  0.374956D-02  0.516355D-02 -0.159989D-02  0.263084D-01  0.300075D-01
     83  0.464776D-02  0.137736D-02 -0.196510D-02  0.249108D-01 -0.116778D-01
     84  0.173540D-02  0.184553D-02 -0.392452D-02  0.179637D-01  0.131136D-01
     85  0.336800D-01  0.322612D-01 -0.159082D-01  0.249855D+00  0.142272D+00
     86  0.194279D-01 -0.264406D-02 -0.688624D-02  0.949616D-01 -0.128192D+00
     87  0.299284D-03 -0.599912D-03 -0.153853D-01  0.801559D-01  0.281555D-01
     88  0.954337D-04  0.372774D-03  0.184409D-03  0.520557D-03  0.242463D-02
     89 -0.826154D-04 -0.710458D-03  0.452320D-03  0.734812D-03 -0.382325D-02
     90  0.150012D-02  0.191468D-02 -0.120797D-02  0.667732D-02  0.707878D-02
     91  0.641828D-03  0.920759D-03 -0.573612D-03  0.345745D-02  0.469158D-02
     92  0.958150D-03  0.847997D-03 -0.789881D-03  0.459765D-02  0.160957D-02
     93 -0.117537D-02 -0.154409D-02  0.986190D-03 -0.414488D-02 -0.450059D-02
     94  0.134936D-02  0.155196D-02 -0.993800D-03  0.584769D-02  0.463221D-02
     95 -0.330823D-03 -0.730042D-03  0.491567D-03 -0.651305D-03 -0.309482D-02
[...]
    130 -0.728434D-05  0.191972D-04 -0.428588D-04  0.964834D-05  0.361299D-04
    131 -0.229114D-04  0.167485D-04 -0.756845D-05 -0.169990D-04  0.226609D-04
    132  0.189657D-04 -0.907594D-05  0.109346D-04  0.785373D-05 -0.201879D-04
    133  0.130455D-03  0.125956D-03  0.272888D-04 -0.261136D-04 -0.306123D-04
    134  0.985599D-04 -0.151977D-04  0.663463D-03 -0.207798D-05 -0.115836D-03
    135 -0.220586D-03 -0.199561D-03 -0.432130D-03 -0.701885D-04 -0.491637D-04
    136 -0.391397D-04 -0.719445D-05 -0.124899D-04 -0.199443D-04  0.120009D-04
    137  0.415723D-04  0.295386D-04  0.781237D-04 -0.201056D-04 -0.321393D-04
    138 -0.111595D-04 -0.103288D-04 -0.152611D-04  0.000000D+00  0.100448D-05
    139 -0.383163D-04 -0.136951D-04 -0.365700D-04 -0.242705D-05  0.221941D-04
    140  0.423957D-04  0.230379D-04  0.540435D-04 -0.258830D-05 -0.219461D-04
    141 -0.103361D-04 -0.168295D-04 -0.393413D-04  0.176911D-04  0.111977D-04
    142 -0.350888D-04 -0.169496D-04 -0.393335D-04  0.000000D+00  0.182948D-04
    143  0.456232D-04  0.197835D-04  0.512800D-04  0.000000D+00 -0.258455D-04
    144 -0.710862D-05 -0.200839D-04 -0.421048D-04  0.202736D-04  0.729837D-05
    145 -0.158317D-04  0.318486D-05  0.218339D-04 -0.321895D-04 -0.131729D-04
    146  0.766383D-04  0.165101D-03  0.560891D-04 -0.496526D-04  0.388097D-04
    147 -0.227450D-04 -0.170951D-04 -0.182970D-05 -0.308623D-04 -0.252124D-04
    148  0.556722D-03  0.366954D-03  0.560605D-03 -0.107270D-04 -0.200495D-03
    149 -0.164415D-04  0.771362D-03 -0.332451D-03 -0.112514D-03  0.675289D-03
    150  0.562871D-03  0.321637D-03  0.526589D-03  0.634183D-04 -0.177816D-03
              111           112           113           114           115 
    111  0.145900D-01
    112 -0.704609D-02  0.147510D-01
    113 -0.710058D-02  0.427813D-02  0.146798D-01
    114  0.395554D-02  0.381942D-02  0.356870D-02  0.149629D-01
    115  0.207321D-02 -0.348574D-02  0.240103D-02  0.292244D-02  0.185485D-01
    116  0.736716D-03  0.501589D-03 -0.197471D-02 -0.787610D-03 -0.443060D-02
    117 -0.105063D-02  0.934364D-03 -0.785339D-03 -0.189461D-02 -0.590031D-02
    118 -0.399665D-03  0.756144D-04  0.350914D-03 -0.326991D-03 -0.928806D-04
    119 -0.462851D-03  0.185840D-03  0.291433D-03 -0.229903D-03 -0.395567D-03
    120 -0.486888D-03  0.352248D-03  0.705105D-05 -0.230336D-03 -0.681443D-03
    121  0.198192D-04  0.000000D+00 -0.299732D-04  0.255055D-04  0.821641D-05
    122  0.189033D-04 -0.219492D-04 -0.289479D-05  0.228700D-04  0.442824D-05
    123  0.281290D-05  0.337437D-05 -0.944835D-05  0.224582D-05 -0.207719D-04
    124  0.100008D-04  0.000000D+00 -0.167453D-04  0.131120D-04  0.118779D-04
    125  0.908488D-05 -0.225108D-04  0.103331D-04  0.104765D-04  0.808976D-05
    126 -0.700552D-05  0.281276D-05  0.377954D-05 -0.101477D-04 -0.171104D-04
    127  0.264697D-05  0.110139D-04 -0.124587D-04  0.536129D-05  0.990499D-05
    128  0.173108D-05 -0.118614D-04  0.146197D-04  0.272582D-05  0.611682D-05
    129 -0.143593D-04  0.134622D-04  0.806613D-05 -0.178983D-04 -0.190833D-04
    130 -0.259261D-04  0.534867D-05  0.318303D-04 -0.302258D-04 -0.256923D-04
    131 -0.165602D-05 -0.181219D-04  0.215380D-04 -0.277894D-05  0.168245D-05
    132  0.000000D+00  0.153924D-04 -0.126492D-04  0.736133D-05 -0.187481D-04
    133 -0.129279D-03  0.569182D-04  0.524194D-04 -0.462477D-04  0.276502D-03
    134  0.562825D-03 -0.309977D-03 -0.423735D-03  0.254926D-03  0.839718D-03
    135 -0.281733D-03  0.192692D-03  0.213717D-03 -0.188525D-04 -0.113145D-02
    136  0.670548D-05 -0.185411D-04  0.134041D-04  0.810870D-05 -0.130980D-04
    137  0.164458D-04 -0.145116D-04 -0.265454D-04  0.220398D-04  0.743603D-04
    138 -0.392787D-05  0.240417D-05  0.323488D-05 -0.169748D-05 -0.764905D-05
    139  0.000000D+00 -0.619072D-05  0.184304D-04 -0.444447D-05 -0.378173D-04
    140  0.905952D-05 -0.216124D-05 -0.215191D-04  0.948658D-05  0.496410D-04
    141 -0.113141D-04  0.147546D-04  0.826120D-05 -0.142507D-04 -0.323683D-04
    142 -0.408918D-05 -0.144335D-05  0.166959D-04 -0.568804D-05 -0.515895D-04
    143  0.565113D-05  0.258614D-05 -0.232536D-04  0.824301D-05  0.358688D-04
    144 -0.147225D-04  0.195019D-04  0.652668D-05 -0.154942D-04 -0.461405D-04
    145  0.547612D-05 -0.263316D-04 -0.731500D-05  0.113340D-04  0.106693D-03
    146 -0.702018D-04 -0.389176D-04  0.495448D-04 -0.594668D-04  0.135654D-03
    147 -0.994700D-05 -0.498077D-05  0.000000D+00  0.159345D-04  0.333843D-04
    148 -0.684437D-05  0.157706D-04 -0.173998D-03  0.196533D-04 -0.216668D-03
    149 -0.428523D-03 -0.184704D-03  0.603099D-03 -0.500713D-03  0.836107D-03
    150  0.271363D-04  0.318472D-04 -0.209387D-03 -0.443484D-05  0.526255D-03
              116           117           118           119           120 
    116  0.224003D-01
    117 -0.107852D-01  0.220361D-01
    118 -0.269742D-03  0.121285D-02  0.113566D-01
    119 -0.447513D-03  0.445878D-03 -0.189417D-02  0.124925D-01
    120 -0.915550D-03  0.630237D-03 -0.490697D-03 -0.119898D-02  0.120128D-01
    121 -0.775458D-05  0.101261D-04  0.222757D-03 -0.270450D-03  0.342455D-03
    122  0.992152D-05 -0.141713D-04  0.669298D-04  0.342755D-03 -0.865026D-05
    123 -0.232234D-04  0.810226D-05  0.531534D-03 -0.590571D-03  0.321264D-03
    124  0.660527D-05 -0.168941D-05 -0.738847D-04  0.411651D-04  0.129730D-03
    125  0.242814D-04 -0.259869D-04 -0.229712D-03  0.654370D-03 -0.221375D-03
    126 -0.886360D-05 -0.371325D-05  0.234892D-03 -0.278956D-03  0.108539D-03
    127  0.000000D+00  0.743320D-05 -0.102635D-03 -0.923477D-04  0.742885D-04
    128  0.174989D-04 -0.168642D-04 -0.258463D-03  0.520857D-03 -0.276817D-03
    129 -0.156461D-04  0.540937D-05  0.206141D-03 -0.412468D-03  0.530975D-04
    130 -0.396039D-05 -0.169108D-04 -0.426024D-03  0.605641D-03  0.346740D-03
    131  0.284130D-04 -0.360535D-04 -0.180658D-03  0.713287D-03  0.149227D-03
    132 -0.985813D-05 -0.813226D-05  0.166157D-04 -0.525439D-04  0.436506D-03
    133  0.318529D-04 -0.105719D-03 -0.280986D-02  0.196395D-02  0.235506D-02
    134  0.798595D-03  0.584541D-03  0.287283D-02 -0.627598D-02  0.267906D-02
    135 -0.784493D-03 -0.532694D-03  0.139196D-02  0.304382D-02 -0.322862D-02
    136  0.473953D-05 -0.274158D-04 -0.108516D-03 -0.490516D-03  0.417799D-03
    137 -0.505078D-05  0.572014D-04 -0.128240D-03  0.121987D-03  0.731601D-04
    138 -0.259616D-05 -0.558738D-05  0.162348D-03 -0.597475D-04 -0.146733D-03
    139  0.557805D-05 -0.415876D-04 -0.875085D-04 -0.484402D-03  0.469279D-03
    140 -0.421226D-05  0.430295D-04 -0.107233D-03  0.128101D-03  0.124640D-03
    141 -0.175764D-05 -0.197592D-04  0.183356D-03 -0.536338D-04 -0.952533D-04
    142 -0.524090D-05 -0.388951D-04 -0.510195D-04 -0.153350D-03  0.902173D-04
    143 -0.150312D-04  0.457220D-04 -0.707437D-04  0.459153D-03 -0.254422D-03
    144 -0.125766D-04 -0.170667D-04  0.219845D-03  0.277418D-03 -0.474315D-03
    145  0.529798D-04  0.324413D-04 -0.289931D-03  0.142308D-02 -0.119367D-02
    146  0.121206D-03  0.608551D-04  0.434941D-03  0.966836D-03 -0.780225D-04
    147 -0.182191D-05  0.905575D-05 -0.120944D-03  0.100310D-02 -0.107882D-02
    148 -0.136290D-03  0.156156D-04 -0.421114D-02  0.372506D-02  0.417718D-02
    149  0.601862D-03  0.501552D-03  0.393523D-02  0.313667D-02 -0.299842D-02
    150  0.669738D-04  0.657365D-03  0.330413D-02 -0.412354D-02  0.482028D-02
              121           122           123           124           125 
    121  0.160775D-01
    122  0.499490D-02  0.147718D-01
    123  0.485595D-02  0.401417D-02  0.157111D-01
    124  0.428647D-02 -0.596229D-02 -0.678527D-02  0.146182D-01
    125 -0.679618D-02  0.381457D-02 -0.762705D-02  0.436949D-02  0.149802D-01
    126 -0.693513D-02 -0.694302D-02  0.406991D-02  0.354650D-02  0.353861D-02
    127  0.427429D-02 -0.619534D-02 -0.665878D-02  0.387104D-02 -0.659859D-02
    128 -0.680835D-02  0.358152D-02 -0.750056D-02 -0.637771D-02  0.401216D-02
    129 -0.694730D-02 -0.717607D-02  0.419641D-02 -0.720070D-02 -0.742947D-02
    130 -0.460381D-02  0.142876D-02  0.202458D-02 -0.451187D-02  0.152070D-02
    131  0.159796D-02 -0.844167D-03  0.350887D-03  0.193437D-02 -0.507755D-03
    132  0.245112D-02  0.680918D-03 -0.620772D-03  0.180524D-02  0.350392D-04
    133  0.445363D-03  0.514209D-03 -0.351769D-03  0.198462D-03  0.267308D-03
    134  0.125337D-02  0.636734D-03  0.316753D-03  0.270335D-03 -0.346304D-03
    135  0.544725D-03  0.444988D-03 -0.162808D-03  0.123954D-03  0.242165D-04
    136 -0.538410D-05  0.136821D-04 -0.327511D-04  0.932174D-05  0.283880D-04
    137  0.000000D+00  0.288106D-05 -0.417196D-05  0.298582D-05  0.487631D-05
    138  0.196698D-04 -0.334316D-05 -0.242359D-04  0.253595D-04  0.234660D-05
    139 -0.190870D-04  0.973486D-05 -0.384891D-05 -0.124859D-04  0.163360D-04
    140 -0.127123D-04 -0.106620D-05  0.247303D-04 -0.188218D-04 -0.717563D-05
    141  0.596685D-05 -0.729042D-05  0.466626D-05  0.355193D-05 -0.970534D-05
    142  0.000000D+00  0.607383D-05 -0.223587D-04  0.983406D-05  0.153809D-04
    143  0.690169D-05 -0.472722D-05  0.622048D-05  0.349814D-05 -0.813077D-05
    144  0.255809D-04 -0.109514D-04 -0.138435D-04  0.258718D-04 -0.106605D-04
    145 -0.154446D-04 -0.262480D-04  0.483200D-04 -0.244188D-04 -0.352221D-04
    146 -0.362142D-04  0.373884D-05  0.261218D-05 -0.207058D-04  0.192473D-04
    147  0.110788D-04 -0.196075D-04  0.832016D-05  0.904020D-05 -0.216462D-04
    148  0.155051D-03  0.104465D-03 -0.211457D-03  0.127640D-03  0.770546D-04
    149 -0.836652D-04 -0.113320D-03 -0.606965D-03  0.983811D-04  0.687261D-04
    150 -0.798086D-04  0.489634D-04  0.644709D-03 -0.137429D-03 -0.865729D-05
              126           127           128           129           130 
    126  0.145515D-01
    127 -0.706203D-02  0.147530D-01
    128 -0.706992D-02  0.428336D-02  0.146732D-01
    129  0.394301D-02  0.381992D-02  0.359115D-02  0.149636D-01
    130  0.211652D-02 -0.363006D-02  0.240251D-02  0.299833D-02  0.188013D-01
    131  0.687299D-03  0.484050D-03 -0.195807D-02 -0.763019D-03 -0.410566D-02
    132 -0.126665D-02  0.102642D-02 -0.743787D-03 -0.204548D-02 -0.546779D-02
    133 -0.598670D-03  0.304831D-03  0.373677D-03 -0.492301D-03 -0.221411D-03
    134 -0.666285D-03  0.599899D-03 -0.167405D-04 -0.336722D-03 -0.124579D-02
    135 -0.583579D-03  0.385460D-03  0.285723D-03 -0.322073D-03 -0.644665D-03
    136 -0.180453D-04  0.549040D-05  0.245566D-04 -0.218766D-04 -0.100452D-04
    137 -0.217672D-05  0.000000D+00  0.260343D-05 -0.444959D-05 -0.106754D-04
    138 -0.185462D-04  0.278140D-04  0.480107D-05 -0.160917D-04 -0.133505D-05
    139  0.275225D-05 -0.146918D-04  0.141301D-04  0.000000D+00  0.120053D-05
    140  0.186208D-04 -0.194692D-04 -0.782309D-05  0.179734D-04  0.000000D+00
    141  0.225134D-05  0.763182D-05 -0.562545D-05  0.633123D-05  0.991068D-05
    142 -0.130516D-04  0.661477D-05  0.121616D-04 -0.162709D-04 -0.728348D-05
    143  0.281693D-05  0.183731D-05 -0.979160D-05  0.115610D-05 -0.791372D-05
    144 -0.135525D-04  0.289384D-04 -0.759396D-05 -0.104860D-04  0.142667D-05
    145  0.393458D-04 -0.141090D-04 -0.249124D-04  0.496556D-04  0.318790D-04
    146  0.181206D-04 -0.244043D-04  0.155487D-04  0.144220D-04  0.109968D-04
    147  0.628153D-05  0.158664D-04 -0.148199D-04  0.131078D-04  0.983865D-05
    148 -0.238868D-03  0.180497D-03  0.129911D-03 -0.186011D-03  0.170656D-03
    149 -0.424918D-03  0.333113D-03  0.303458D-03 -0.190187D-03 -0.136884D-02
    150  0.587089D-03 -0.463595D-03 -0.334823D-03  0.260923D-03  0.112306D-02
              131           132           133           134           135 
    131  0.223026D-01
    132 -0.102987D-01  0.221908D-01
    133 -0.184483D-03  0.999827D-03  0.104834D-01
    134 -0.113138D-02  0.287588D-03 -0.136945D-02  0.114977D-01
    135 -0.484801D-03  0.181462D-03 -0.149023D-02 -0.243567D-02  0.111498D-01
    136  0.197001D-04 -0.303829D-04  0.136519D-03  0.996072D-04 -0.432316D-03
    137 -0.645836D-05  0.607353D-05  0.207284D-03  0.424955D-03 -0.749504D-03
    138  0.157741D-04 -0.157340D-04 -0.136122D-03 -0.735322D-04  0.161668D-03
    139  0.663652D-05 -0.117646D-04  0.346311D-04 -0.898852D-04 -0.914136D-04
    140 -0.195219D-04  0.246919D-04  0.105396D-03  0.235462D-03 -0.408602D-03
    141  0.271053D-05  0.288436D-05 -0.238010D-03 -0.263025D-03  0.502570D-03
    142  0.197504D-04 -0.288615D-04  0.814053D-04 -0.620759D-04  0.567282D-04
    143 -0.640804D-05  0.759495D-05  0.152170D-03  0.263272D-03 -0.260460D-03
    144  0.158244D-04 -0.142126D-04 -0.191236D-03 -0.235215D-03  0.650712D-03
    145  0.809406D-05 -0.807456D-05  0.156534D-03 -0.584098D-03  0.347275D-03
    146  0.310684D-04 -0.374109D-04  0.303131D-03 -0.187011D-03 -0.179631D-03
    147  0.181607D-04 -0.262068D-04  0.193870D-04 -0.244077D-03  0.551012D-03
    148  0.123687D-03 -0.427092D-03 -0.390725D-02  0.384780D-03  0.249685D-02
    149 -0.817013D-03 -0.595550D-03  0.242272D-02 -0.337076D-02  0.208696D-02
    150  0.903376D-03  0.821744D-03  0.319483D-02  0.228754D-02 -0.573066D-02
              136           137           138           139           140 
    136  0.159008D-01
    137  0.466537D-02  0.156193D-01
    138  0.479854D-02  0.385622D-02  0.146078D-01
    139  0.428703D-02 -0.670882D-02 -0.621825D-02  0.148076D-01
    140 -0.694837D-02  0.424510D-02 -0.716057D-02  0.381174D-02  0.150052D-01
    141 -0.681521D-02 -0.751798D-02  0.359098D-02  0.430232D-02  0.359955D-02
    142  0.428307D-02 -0.686285D-02 -0.601471D-02  0.393373D-02 -0.721218D-02
    143 -0.695233D-02  0.409108D-02 -0.695703D-02 -0.706212D-02  0.398130D-02
    144 -0.681917D-02 -0.767200D-02  0.379452D-02 -0.657154D-02 -0.742438D-02
    145 -0.493462D-02  0.185108D-02  0.111313D-02 -0.364001D-02  0.314569D-02
    146  0.220790D-02 -0.757058D-03  0.462265D-03  0.100906D-02 -0.195589D-02
    147  0.139816D-02  0.212662D-03 -0.102150D-02  0.496355D-03 -0.689142D-03
    148  0.324857D-03 -0.265151D-03  0.305026D-03  0.345679D-03 -0.244329D-03
    149  0.164333D-03 -0.417328D-03  0.335483D-03  0.223624D-03 -0.358038D-03
    150  0.935294D-03  0.153690D-03  0.437029D-03  0.567645D-03 -0.213959D-03
              141           142           143           144           145 
    141  0.147085D-01
    142 -0.636404D-02  0.146779D-01
    143 -0.706681D-02  0.353194D-02  0.145754D-01
    144  0.404214D-02  0.438008D-02  0.352724D-02  0.149938D-01
    145  0.240774D-02 -0.463458D-02  0.215112D-02  0.141317D-02  0.182547D-01
    146 -0.736572D-03  0.173582D-02 -0.122913D-02 -0.981111D-05 -0.577208D-02
    147 -0.192331D-02  0.186562D-02  0.680119D-03 -0.554047D-03 -0.456592D-02
    148  0.325848D-03  0.576394D-04 -0.532369D-03  0.378085D-04 -0.563808D-03
    149  0.394774D-03  0.782052D-04 -0.503456D-03  0.249355D-03 -0.321078D-03
    150  0.693807D-04  0.163835D-03 -0.617769D-03 -0.334429D-03 -0.115228D-02
              146           147           148           149           150 
    146  0.223088D-01
    147 -0.105661D-01  0.220967D-01
    148  0.494361D-03 -0.533330D-03  0.108568D-01
    149  0.133390D-02 -0.367344D-03 -0.223673D-02  0.113970D-01
    150  0.602580D-03 -0.117996D-02 -0.300301D-02 -0.156878D-02  0.109281D-01
 Final forces over variables, Energy=-3.68889833D+03:
 -4.17360039D-07 1.25022283D-08-1.44200252D-06-3.59615395D-07
 -9.77635922D-07-4.37341640D-07-3.78157208D-07-2.35083351D-06
  5.01333663D-07 8.36046806D-07-4.63161791D-07-2.95808372D-07
 -9.52062908D-07 4.01970366D-07-1.94921284D-06-2.66825478D-06
  2.72119491D-07 7.08639112D-07-7.17469950D-07-2.37090061D-07
 -1.22659414D-06 1.98286164D-08 1.31453346D-06 2.12616825D-06
  3.99205990D-07 8.71067395D-07 3.01360578D-07-1.10793963D-06
  9.55537289D-07 7.93081020D-07 3.34697540D-07 1.76973723D-06
  3.64788159D-07-4.29402380D-07 5.15780309D-07-7.99024386D-08
  8.56601556D-07-1.14803905D-06-3.28824074D-07-6.70387683D-07
 -8.82469758D-07 1.27406064D-06 3.44887466D-07 3.14516245D-07
  1.28154405D-05 2.06497607D-08 7.35883836D-07-2.47926075D-07
 -1.74595790D-07 3.51359551D-07-6.75095015D-07-2.93980454D-06
  1.00303521D-06 6.55330551D-07 2.61826265D-07 8.28863552D-07
  3.53590903D-07 1.92624592D-07 3.54326802D-07-5.63649038D-07
  3.69660846D-07 8.89378942D-08 1.14348565D-07-3.23369835D-07
  7.88155727D-08-3.20943841D-07-3.64740475D-07-1.72025808D-07
  3.81644784D-07 4.32420395D-07-7.42579778D-07-3.73150942D-07
  1.69448996D-06 5.18844381D-08-5.46461240D-07 7.44481401D-07
 -1.54813399D-06 2.60944330D-06 9.50040645D-07-6.38662452D-07
 -1.94819728D-06-6.47723163D-07-5.21143111D-07 1.51261058D-06
  1.19140848D-06-1.50618062D-06-3.59845354D-07 2.10040860D-07
 -2.10800998D-07 6.52498890D-07-3.57452755D-07 5.67600216D-07
  5.74277201D-08-4.77789770D-07 4.47263202D-07-6.29092945D-08
 -7.63203972D-07 1.61849000D-07-3.48323496D-07 7.71669471D-07
  9.30047479D-07-3.21263846D-07 1.83139750D-06 1.95272096D-06
  1.59839879D-06 6.86333365D-07-2.49594594D-07 1.13480261D-06
  3.01748007D-07-6.34179952D-07 7.50217248D-07 4.29082011D-07
 -5.06845948D-07 8.77551253D-07 3.52970841D-07 8.25192255D-07
 -1.81722163D-07-1.85895972D-07 7.96013342D-07-1.89181190D-08
  5.16325670D-07 1.12914757D-07 2.38114182D-07 3.80659288D-07
 -2.27516254D-08 1.02447800D-07 3.92430282D-07-1.09806316D-08
  1.14218794D-07-5.12330907D-07-2.88172133D-08-6.47895355D-07
  1.68479181D-08 6.94438682D-07 9.77586704D-07 2.48449954D-07
  2.28893885D-07-2.20789972D-07-5.75765833D-08-7.71326526D-08
 -5.26816509D-07 4.16514041D-07 3.96957972D-07-5.27258852D-08
  1.69664209D-07-1.38433022D-06 6.04665577D-07 6.80613474D-07
 -4.29958543D-07-9.81188224D-07

 GradGradGradGradGradGradGradGradGradGradGradGradGradGradGradGradGradGrad
 Berny optimization.
 Internal  Forces:  Max     0.000012815 RMS     0.000001351
 Search for a local minimum.
 Step number   1 out of a maximum of  160
 All quantities printed in internal units (Hartrees-Bohrs-Radians)
 Mixed Optimization -- En-DIIS/RFO-DIIS
 Second derivative matrix not updated -- analytic derivatives used.
 ITU=  0
     Eigenvalues ---    0.00176   0.00296   0.00336   0.00338   0.00353
     Eigenvalues ---    0.00380   0.00555   0.00557   0.00613   0.00625
     Eigenvalues ---    0.00865   0.01149   0.02663   0.02745   0.03020
     Eigenvalues ---    0.04178   0.04393   0.04439   0.04459   0.04494
     Eigenvalues ---    0.04562   0.04654   0.04674   0.04686   0.04738
     Eigenvalues ---    0.04806   0.04839   0.04848   0.04914   0.05035
     Eigenvalues ---    0.05077   0.05140   0.05248   0.05367   0.05410
     Eigenvalues ---    0.06189   0.06751   0.09369   0.09434   0.09469
     Eigenvalues ---    0.09486   0.10987   0.11273   0.11338   0.11490
     Eigenvalues ---    0.11988   0.12452   0.12574   0.12603   0.12633
     Eigenvalues ---    0.12756   0.12995   0.13136   0.14568   0.14849
     Eigenvalues ---    0.15127   0.15331   0.16689   0.16747   0.16760
     Eigenvalues ---    0.16794   0.18594   0.18735   0.18851   0.18896
     Eigenvalues ---    0.22478   0.22699   0.22868   0.22894   0.29044
     Eigenvalues ---    0.29061   0.29088   0.29102   0.31554   0.31583
     Eigenvalues ---    0.31605   0.31616   0.31925   0.31932   0.31961
     Eigenvalues ---    0.31968   0.33300   0.33334   0.33344   0.33401
     Eigenvalues ---    0.33489   0.33505   0.33612   0.33687   0.34343
     Eigenvalues ---    0.34377   0.34408   0.34478
 RFO step:  Lambda= 0.00000000D+00 EMin= 1.75670374D-03
 Linear search not attempted -- first point.
 Iteration  1 RMS(Cart)=  0.00057033 RMS(Int)=  0.00000009
 Iteration  2 RMS(Cart)=  0.00000018 RMS(Int)=  0.00000000
 Variable       Old X    -DE/DX   Delta X   Delta X   Delta X     New X
                                 (Linear)    (Quad)   (Total)
    R1        2.08865  -0.00000   0.00000   0.00000   0.00000   2.08865
    R2        2.07537   0.00000   0.00000  -0.00000  -0.00000   2.07537
    R3        2.89445  -0.00000   0.00000  -0.00000  -0.00000   2.89445
    R4        2.06978  -0.00000   0.00000   0.00000   0.00000   2.06978
    R5        3.49017  -0.00000   0.00000  -