 Entering Gaussian System, Link 0=g16
 Initial command:
 /home2/jwang/software/g16/l1.exe "/archive/gaussian/Gau-52298.inp" -scrdir="/archive/gaussian/"
 Entering Link 1 = /home2/jwang/software/g16/l1.exe PID=     52299.
  
 Copyright (c) 1988,1990,1992,1993,1995,1998,2003,2009,2016,
            Gaussian, Inc.  All Rights Reserved.
  
 This is part of the Gaussian(R) 16 program.  It is based on
 the Gaussian(R) 09 system (copyright 2009, Gaussian, Inc.),
 the Gaussian(R) 03 system (copyright 2003, Gaussian, Inc.),
 the Gaussian(R) 98 system (copyright 1998, Gaussian, Inc.),
 the Gaussian(R) 94 system (copyright 1995, Gaussian, Inc.),
 the Gaussian 92(TM) system (copyright 1992, Gaussian, Inc.),
 the Gaussian 90(TM) system (copyright 1990, Gaussian, Inc.),
 the Gaussian 88(TM) system (copyright 1988, Gaussian, Inc.),
 the Gaussian 86(TM) system (copyright 1986, Carnegie Mellon
 University), and the Gaussian 82(TM) system (copyright 1983,
 Carnegie Mellon University). Gaussian is a federally registered
 trademark of Gaussian, Inc.
  
 This software contains proprietary and confidential information,
 including trade secrets, belonging to Gaussian, Inc.
  
 This software is provided under written license and may be
 used, copied, transmitted, or stored only in accord with that
 written license.
  
 The following legend is applicable only to US Government
 contracts under FAR:
  
                    RESTRICTED RIGHTS LEGEND
  
 Use, reproduction and disclosure by the US Government is
 subject to restrictions as set forth in subparagraphs (a)
 and (c) of the Commercial Computer Software - Restricted
 Rights clause in FAR 52.227-19.
  
 Gaussian, Inc.
 340 Quinnipiac St., Bldg. 40, Wallingford CT 06492
  
  
 ---------------------------------------------------------------
 Warning -- This program may not be used in any manner that
 competes with the business of Gaussian, Inc. or will provide
 assistance to any competitor of Gaussian, Inc.  The licensee
 of this program is prohibited from giving any competitor of
 Gaussian, Inc. access to this program.  By using this program,
 the user acknowledges that Gaussian, Inc. is engaged in the
 business of creating and licensing software in the field of
 computational chemistry and represents and warrants to the
 licensee that it is not a competitor of Gaussian, Inc. and that
 it will not use this program in any manner prohibited above.
 ---------------------------------------------------------------
  

 Cite this work as:
 Gaussian 16, Revision A.03,
 M. J. Frisch, G. W. Trucks, H. B. Schlegel, G. E. Scuseria, 
 M. A. Robb, J. R. Cheeseman, G. Scalmani, V. Barone, 
 G. A. Petersson, H. Nakatsuji, X. Li, M. Caricato, A. V. Marenich, 
 J. Bloino, B. G. Janesko, R. Gomperts, B. Mennucci, H. P. Hratchian, 
 J. V. Ortiz, A. F. Izmaylov, J. L. Sonnenberg, D. Williams-Young, 
 F. Ding, F. Lipparini, F. Egidi, J. Goings, B. Peng, A. Petrone, 
 T. Henderson, D. Ranasinghe, V. G. Zakrzewski, J. Gao, N. Rega, 
 G. Zheng, W. Liang, M. Hada, M. Ehara, K. Toyota, R. Fukuda, 
 J. Hasegawa, M. Ishida, T. Nakajima, Y. Honda, O. Kitao, H. Nakai, 
 T. Vreven, K. Throssell, J. A. Montgomery, Jr., J. E. Peralta, 
 F. Ogliaro, M. J. Bearpark, J. J. Heyd, E. N. Brothers, K. N. Kudin, 
 V. N. Staroverov, T. A. Keith, R. Kobayashi, J. Normand, 
 K. Raghavachari, A. P. Rendell, J. C. Burant, S. S. Iyengar, 
 J. Tomasi, M. Cossi, J. M. Millam, M. Klene, C. Adamo, R. Cammi, 
 J. W. Ochterski, R. L. Martin, K. Morokuma, O. Farkas, 
 J. B. Foresman, and D. J. Fox, Gaussian, Inc., Wallingford CT, 2016.
 
 ******************************************
 Gaussian 16:  ES64L-G16RevA.03 25-Dec-2016
                17-Feb-2023 
 ******************************************
 %nproc=12
 Will use up to   12 processors via shared memory.
 %mem=12GB
 %chk=c100
 ---------------------------------
 #wB97xd/6-31G* SCF=tight Test opt
 ---------------------------------
 1/18=20,19=15,26=3,38=1/1,3;
 2/9=110,12=2,17=6,18=5,40=1/2;
 3/5=1,6=6,7=1,11=2,25=1,30=1,71=1,74=-58/1,2,3;
 4//1;
 5/5=2,32=2,38=5/2;
 6/7=2,8=2,9=2,10=2,28=1/1;
 7//1,2,3,16;
 1/18=20,19=15,26=3/3(2);
 2/9=110/2;
 99//99;
 2/9=110/2;
 3/5=1,6=6,7=1,11=2,25=1,30=1,71=1,74=-58/1,2,3;
 4/5=5,16=3,69=1/1;
 5/5=2,32=2,38=5/2;
 7//1,2,3,16;
 1/18=20,19=15,26=3/3(-5);
 2/9=110/2;
 6/7=2,8=2,9=2,10=2,19=2,28=1/1;
 99/9=1/99;
 ---------------------
 remark line goes here
 ---------------------
 Symbolic Z-matrix:
 Charge =  0 Multiplicity = 1
 N                     0.94551  -0.07788  -0.07803 
 C                     2.39951  -0.0096    0.03421 
 C                     2.89838  -1.05765   1.02145 
 N                     4.34737  -1.01071   1.13612 
 C                     4.87765  -1.97828   2.08604 
 C                     6.40199  -1.98096   2.0471 
 N                     6.91801  -0.62474   2.25237 
 H                     0.6231    0.55234  -0.80598 
 H                     0.51834   0.24241   0.78722 
 H                     2.77873   0.98353   0.34091 
 H                     2.8357   -0.22427  -0.94665 
 H                     2.60302  -2.04736   0.65561 
 H                     2.38762  -0.91668   1.99562 
 H                     4.61295  -0.08774   1.47451 
 H                     4.51054  -2.97398   1.80768 
 H                     4.53943  -1.78023   3.11949 
 H                     6.73326  -2.42915   1.09716 
 H                     6.77128  -2.61801   2.85824 
 H                     6.89675  -0.12768   1.36599 
 H                     7.89427  -0.66116   2.52814 
 

 GradGradGradGradGradGradGradGradGradGradGradGradGradGradGradGradGradGrad
 Berny optimization.
 Initialization pass.
                           ----------------------------
                           !    Initial Parameters    !
                           ! (Angstroms and Degrees)  !
 --------------------------                            --------------------------
 ! Name  Definition              Value          Derivative Info.                !
 --------------------------------------------------------------------------------
 ! R1    R(1,2)                  1.4599         estimate D2E/DX2                !
 ! R2    R(1,8)                  1.0154         estimate D2E/DX2                !
 ! R3    R(1,9)                  1.0167         estimate D2E/DX2                !
 ! R4    R(2,3)                  1.5238         estimate D2E/DX2                !
 ! R5    R(2,10)                 1.1064         estimate D2E/DX2                !
 ! R6    R(2,11)                 1.0947         estimate D2E/DX2                !
 ! R7    R(3,4)                  1.4543         estimate D2E/DX2                !
 ! R8    R(3,12)                 1.0957         estimate D2E/DX2                !
 ! R9    R(3,13)                 1.1089         estimate D2E/DX2                !
 ! R10   R(4,5)                  1.4559         estimate D2E/DX2                !
 ! R11   R(4,14)                 1.0183         estimate D2E/DX2                !
 ! R12   R(5,6)                  1.5248         estimate D2E/DX2                !
 ! R13   R(5,15)                 1.0971         estimate D2E/DX2                !
 ! R14   R(5,16)                 1.1053         estimate D2E/DX2                !
 ! R15   R(6,7)                  1.4655         estimate D2E/DX2                !
 ! R16   R(6,17)                 1.1014         estimate D2E/DX2                !
 ! R17   R(6,18)                 1.0955         estimate D2E/DX2                !
 ! R18   R(7,19)                 1.0165         estimate D2E/DX2                !
 ! R19   R(7,20)                 1.0151         estimate D2E/DX2                !
 ! A1    A(2,1,8)              110.018          estimate D2E/DX2                !
 ! A2    A(2,1,9)              109.7719         estimate D2E/DX2                !
 ! A3    A(8,1,9)              106.331          estimate D2E/DX2                !
 ! A4    A(1,2,3)              110.1025         estimate D2E/DX2                !
 ! A5    A(1,2,10)             113.8689         estimate D2E/DX2                !
 ! A6    A(1,2,11)             108.5885         estimate D2E/DX2                !
 ! A7    A(3,2,10)             108.9997         estimate D2E/DX2                !
 ! A8    A(3,2,11)             108.3717         estimate D2E/DX2                !
 ! A9    A(10,2,11)            106.7273         estimate D2E/DX2                !
 ! A10   A(2,3,4)              110.7984         estimate D2E/DX2                !
 ! A11   A(2,3,12)             108.4625         estimate D2E/DX2                !
 ! A12   A(2,3,13)             109.3247         estimate D2E/DX2                !
 ! A13   A(4,3,12)             108.9087         estimate D2E/DX2                !
 ! A14   A(4,3,13)             112.6773         estimate D2E/DX2                !
 ! A15   A(12,3,13)            106.4974         estimate D2E/DX2                !
 ! A16   A(3,4,5)              113.1345         estimate D2E/DX2                !
 ! A17   A(3,4,14)             108.3805         estimate D2E/DX2                !
 ! A18   A(5,4,14)             106.8914         estimate D2E/DX2                !
 ! A19   A(4,5,6)              110.4024         estimate D2E/DX2                !
 ! A20   A(4,5,15)             108.4051         estimate D2E/DX2                !
 ! A21   A(4,5,16)             112.3036         estimate D2E/DX2                !
 ! A22   A(6,5,15)             109.0519         estimate D2E/DX2                !
 ! A23   A(6,5,16)             109.2742         estimate D2E/DX2                !
 ! A24   A(15,5,16)            107.305          estimate D2E/DX2                !
 ! A25   A(5,6,7)              110.2911         estimate D2E/DX2                !
 ! A26   A(5,6,17)             108.8696         estimate D2E/DX2                !
 ! A27   A(5,6,18)             108.6083         estimate D2E/DX2                !
 ! A28   A(7,6,17)             113.0474         estimate D2E/DX2                !
 ! A29   A(7,6,18)             108.4058         estimate D2E/DX2                !
 ! A30   A(17,6,18)            107.4931         estimate D2E/DX2                !
 ! A31   A(6,7,19)             108.8465         estimate D2E/DX2                !
 ! A32   A(6,7,20)             110.0888         estimate D2E/DX2                !
 ! A33   A(19,7,20)            105.9358         estimate D2E/DX2                !
 ! D1    D(8,1,2,3)           -174.0941         estimate D2E/DX2                !
 ! D2    D(8,1,2,10)            63.1503         estimate D2E/DX2                !
 ! D3    D(8,1,2,11)           -55.5921         estimate D2E/DX2                !
 ! D4    D(9,1,2,3)             69.2279         estimate D2E/DX2                !
 ! D5    D(9,1,2,10)           -53.5277         estimate D2E/DX2                !
 ! D6    D(9,1,2,11)          -172.2702         estimate D2E/DX2                !
 ! D7    D(1,2,3,4)            179.5011         estimate D2E/DX2                !
 ! D8    D(1,2,3,12)            60.011          estimate D2E/DX2                !
 ! D9    D(1,2,3,13)           -55.7321         estimate D2E/DX2                !
 ! D10   D(10,2,3,4)           -54.9256         estimate D2E/DX2                !
 ! D11   D(10,2,3,12)         -174.4157         estimate D2E/DX2                !
 ! D12   D(10,2,3,13)           69.8412         estimate D2E/DX2                !
 ! D13   D(11,2,3,4)            60.866          estimate D2E/DX2                !
 ! D14   D(11,2,3,12)          -58.6241         estimate D2E/DX2                !
 ! D15   D(11,2,3,13)         -174.3672         estimate D2E/DX2                !
 ! D16   D(2,3,4,5)            179.0137         estimate D2E/DX2                !
 ! D17   D(2,3,4,14)            60.6597         estimate D2E/DX2                !
 ! D18   D(12,3,4,5)           -61.7644         estimate D2E/DX2                !
 ! D19   D(12,3,4,14)          179.8815         estimate D2E/DX2                !
 ! D20   D(13,3,4,5)            56.1694         estimate D2E/DX2                !
 ! D21   D(13,3,4,14)          -62.1846         estimate D2E/DX2                !
 ! D22   D(3,4,5,6)            173.8901         estimate D2E/DX2                !
 ! D23   D(3,4,5,15)            54.496          estimate D2E/DX2                !
 ! D24   D(3,4,5,16)           -63.8856         estimate D2E/DX2                !
 ! D25   D(14,4,5,6)           -66.8942         estimate D2E/DX2                !
 ! D26   D(14,4,5,15)          173.7117         estimate D2E/DX2                !
 ! D27   D(14,4,5,16)           55.33           estimate D2E/DX2                !
 ! D28   D(4,5,6,7)             54.0363         estimate D2E/DX2                !
 ! D29   D(4,5,6,17)           -70.5377         estimate D2E/DX2                !
 ! D30   D(4,5,6,18)           172.7017         estimate D2E/DX2                !
 ! D31   D(15,5,6,7)           173.038          estimate D2E/DX2                !
 ! D32   D(15,5,6,17)           48.464          estimate D2E/DX2                !
 ! D33   D(15,5,6,18)          -68.2966         estimate D2E/DX2                !
 ! D34   D(16,5,6,7)           -69.952          estimate D2E/DX2                !
 ! D35   D(16,5,6,17)          165.4739         estimate D2E/DX2                !
 ! D36   D(16,5,6,18)           48.7134         estimate D2E/DX2                !
 ! D37   D(5,6,7,19)           -82.7822         estimate D2E/DX2                !
 ! D38   D(5,6,7,20)           161.5125         estimate D2E/DX2                !
 ! D39   D(17,6,7,19)           39.3603         estimate D2E/DX2                !
 ! D40   D(17,6,7,20)          -76.3449         estimate D2E/DX2                !
 ! D41   D(18,6,7,19)          158.4287         estimate D2E/DX2                !
 ! D42   D(18,6,7,20)           42.7234         estimate D2E/DX2                !
 --------------------------------------------------------------------------------
 Trust Radius=3.00D-01 FncErr=1.00D-07 GrdErr=1.00D-06 EigMax=2.50D+02 EigMin=1.00D-04
 Number of steps in this run=    104 maximum allowed number of steps=    120.
 GradGradGradGradGradGradGradGradGradGradGradGradGradGradGradGradGradGrad

                          Input orientation:                          
 ---------------------------------------------------------------------
 Center     Atomic      Atomic             Coordinates (Angstroms)
 Number     Number       Type             X           Y           Z
 ---------------------------------------------------------------------
      1          7           0        0.945505   -0.077879   -0.078033
      2          6           0        2.399513   -0.009597    0.034211
      3          6           0        2.898381   -1.057653    1.021453
      4          7           0        4.347368   -1.010712    1.136124
      5          6           0        4.877646   -1.978279    2.086037
      6          6           0        6.401990   -1.980959    2.047103
      7          7           0        6.918011   -0.624738    2.252371
      8          1           0        0.623103    0.552340   -0.805982
      9          1           0        0.518338    0.242408    0.787217
     10          1           0        2.778730    0.983526    0.340910
     11          1           0        2.835702   -0.224266   -0.946653
     12          1           0        2.603021   -2.047358    0.655614
     13          1           0        2.387616   -0.916680    1.995623
     14          1           0        4.612952   -0.087742    1.474505
     15          1           0        4.510542   -2.973980    1.807683
     16          1           0        4.539430   -1.780229    3.119488
     17          1           0        6.733256   -2.429150    1.097156
     18          1           0        6.771277   -2.618014    2.858240
     19          1           0        6.896753   -0.127680    1.365989
     20          1           0        7.894267   -0.661160    2.528144
 ---------------------------------------------------------------------
                    Distance matrix (angstroms):
                    1          2          3          4          5
     1  N    0.000000
     2  C    1.459932   0.000000
     3  C    2.445925   1.523790   0.000000
     4  N    3.730552   2.451648   1.454275   0.000000
     5  C    4.874058   3.771848   2.428658   1.455924   0.000000
     6  C    6.157203   4.894673   3.765598   2.448007   1.524844
     7  N    6.434334   5.071040   4.226109   2.828991   2.454146
     8  H    1.015397   2.043852   3.332940   4.481635   5.733144
     9  H    1.016717   2.041897   2.722063   4.043947   5.061812
    10  H    2.159353   1.106419   2.154963   2.658942   4.027804
    11  H    2.085372   1.094732   2.138201   2.691020   4.055034
    12  H    2.676647   2.140099   1.095715   2.085251   2.687899
    13  H    2.661450   2.161036   1.108946   2.142010   2.708397
    14  H    3.982542   2.641944   2.021321   1.018288   2.004536
    15  H    4.965160   4.048359   2.624792   2.081355   1.097118
    16  H    5.102786   4.151303   2.759875   2.136066   1.105276
    17  H    6.356698   5.075965   4.073451   2.775959   2.150456
    18  H    7.000972   5.821624   4.561562   3.380007   2.142756
    19  H    6.124134   4.691773   4.119530   2.707757   2.831957
    20  H    7.444304   6.069313   5.233183   3.826278   3.321185
                    6          7          8          9         10
     6  C    0.000000
     7  N    1.465519   0.000000
     8  H    6.924828   7.096823   0.000000
     9  H    6.414673   6.622267   1.626444   0.000000
    10  H    4.982698   4.834650   2.479518   2.420293   0.000000
    11  H    4.976641   5.201862   2.349149   2.931598   1.766303
    12  H    4.046334   4.815872   3.579772   3.099395   3.052240
    13  H    4.153377   4.547046   3.622225   2.509567   2.549868
    14  H    2.666982   2.491332   4.639960   4.165000   2.407701
    15  H    2.149649   3.393021   5.863306   5.227255   4.562066
    16  H    2.158571   2.782930   6.015631   5.069490   4.296382
    17  H    1.101368   2.150479   7.060113   6.771890   5.277930
    18  H    1.095517   2.088483   7.828009   7.181254   5.937043
    19  H    2.035522   1.016460   6.673722   6.415303   4.386761
    20  H    2.049429   1.015113   8.090662   7.632273   5.801526
                   11         12         13         14         15
    11  H    0.000000
    12  H    2.438250   0.000000
    13  H    3.055684   1.766481   0.000000
    14  H    3.006537   2.924124   2.431218   0.000000
    15  H    4.237025   2.413406   2.962198   2.907209   0.000000
    16  H    4.675170   3.145110   2.576644   2.361331   1.773896
    17  H    4.922357   4.171279   4.688219   3.181238   2.396278
    18  H    5.974613   4.748850   4.780705   3.602134   2.518195
    19  H    4.674374   4.756672   4.620744   2.286726   3.740390
    20  H    6.152574   5.781453   5.538238   3.493707   4.161466
                   16         17         18         19         20
    16  H    0.000000
    17  H    3.053489   0.000000
    18  H    2.398182   1.771591   0.000000
    19  H    3.370853   2.322879   2.905912   0.000000
    20  H    3.585657   2.553715   2.280208   1.621802   0.000000
 Stoichiometry    C4H13N3
 Framework group  C1[X(C4H13N3)]
 Deg. of freedom    54
 Full point group                 C1      NOp   1
 Largest Abelian subgroup         C1      NOp   1
 Largest concise Abelian subgroup C1      NOp   1
                         Standard orientation:                         
 ---------------------------------------------------------------------
 Center     Atomic      Atomic             Coordinates (Angstroms)
 Number     Number       Type             X           Y           Z
 ---------------------------------------------------------------------
      1          7           0        3.528930    0.000343   -0.041732
      2          6           0        2.201490    0.554151    0.208467
      3          6           0        1.133129   -0.489550   -0.093573
      4          7           0       -0.195812    0.042915    0.161992
      5          6           0       -1.259048   -0.907115   -0.132435
      6          6           0       -2.609293   -0.343793    0.297283
      7          7           0       -2.825821    0.973746   -0.306831
      8          1           0        4.242095    0.661008    0.251437
      9          1           0        3.661036   -0.138575   -1.040212
     10          1           0        1.982725    1.471451   -0.370208
     11          1           0        2.130062    0.824735    1.266825
     12          1           0        1.299967   -1.355234    0.557079
     13          1           0        1.256290   -0.850002   -1.135046
     14          1           0       -0.341524    0.847501   -0.444902
     15          1           0       -1.062431   -1.830981    0.425670
     16          1           0       -1.299101   -1.172866   -1.204539
     17          1           0       -2.654052   -0.326241    1.397601
     18          1           0       -3.397430   -1.018968   -0.053623
     19          1           0       -2.354100    1.675277    0.257549
     20          1           0       -3.812284    1.211718   -0.280088
 ---------------------------------------------------------------------
 Rotational constants (GHZ):           8.4139376           0.9048776           0.8501185
 Standard basis: 6-31G(d) (6D, 7F)
 There are   131 symmetry adapted cartesian basis functions of A   symmetry.
 There are   131 symmetry adapted basis functions of A   symmetry.
   131 basis functions,   248 primitive gaussians,   131 cartesian basis functions
    29 alpha electrons       29 beta electrons
       nuclear repulsion energy       320.2630036260 Hartrees.
 NAtoms=   20 NActive=   20 NUniq=   20 SFac= 1.00D+00 NAtFMM=   60 NAOKFM=F Big=F
 Integral buffers will be    131072 words long.
 Raffenetti 2 integral format.
 Two-electron integral symmetry is turned on.
 Nuclear repulsion after empirical dispersion term =      320.2523714060 Hartrees.
 One-electron integrals computed using PRISM.
 NBasis=   131 RedAO= T EigKep=  3.35D-03  NBF=   131
 NBsUse=   131 1.00D-06 EigRej= -1.00D+00 NBFU=   131
 ExpMin= 1.61D-01 ExpMax= 4.17D+03 ExpMxC= 6.27D+02 IAcc=3 IRadAn=         5 AccDes= 0.00D+00
 Harris functional with IExCor= 4639 and IRadAn=       5 diagonalized for initial guess.
 HarFok:  IExCor= 4639 AccDes= 0.00D+00 IRadAn=         5 IDoV= 1 UseB2=F ITyADJ=14
 ICtDFT=  3500011 ScaDFX=  1.000000  1.000000  1.000000  1.000000
 FoFCou: FMM=F IPFlag=           0 FMFlag=      100000 FMFlg1=           0
         NFxFlg=           0 DoJE=T BraDBF=F KetDBF=T FulRan=T
         wScrn=  0.000000 ICntrl=       500 IOpCl=  0 I1Cent=   200000004 NGrid=           0
         NMat0=    1 NMatS0=      1 NMatT0=    0 NMatD0=    1 NMtDS0=    0 NMtDT0=    0
 Petite list used in FoFCou.
 Requested convergence on RMS density matrix=1.00D-08 within 128 cycles.
 Requested convergence on MAX density matrix=1.00D-06.
 Requested convergence on             energy=1.00D-06.
 No special actions if energy rises.
 Integral accuracy reduced to 1.0D-05 until final iterations.
 Initial convergence to 1.0D-05 achieved.  Increase integral accuracy.
 SCF Done:  E(RwB97XD) =  -324.379959490     A.U. after   13 cycles
            NFock= 13  Conv=0.72D-08     -V/T= 2.0095

 **********************************************************************

            Population analysis using the SCF density.

 **********************************************************************

 Orbital symmetries:
       Occupied  (A) (A) (A) (A) (A) (A) (A) (A) (A) (A) (A) (A)
                 (A) (A) (A) (A) (A) (A) (A) (A) (A) (A) (A) (A)
                 (A) (A) (A) (A) (A)
       Virtual   (A) (A) (A) (A) (A) (A) (A) (A) (A) (A) (A) (A)
                 (A) (A) (A) (A) (A) (A) (A) (A) (A) (A) (A) (A)
                 (A) (A) (A) (A) (A) (A) (A) (A) (A) (A) (A) (A)
                 (A) (A) (A) (A) (A) (A) (A) (A) (A) (A) (A) (A)
                 (A) (A) (A) (A) (A) (A) (A) (A) (A) (A) (A) (A)
                 (A) (A) (A) (A) (A) (A) (A) (A) (A) (A) (A) (A)
                 (A) (A) (A) (A) (A) (A) (A) (A) (A) (A) (A) (A)
                 (A) (A) (A) (A) (A) (A) (A) (A) (A) (A) (A) (A)
                 (A) (A) (A) (A) (A) (A)
 The electronic state is 1-A.
 Alpha  occ. eigenvalues --  -14.42643 -14.42408 -14.42379 -10.31069 -10.30990
 Alpha  occ. eigenvalues --  -10.30521 -10.30493  -1.00615  -0.97628  -0.96105
 Alpha  occ. eigenvalues --   -0.82702  -0.77142  -0.68656  -0.67529  -0.59000
 Alpha  occ. eigenvalues --   -0.57950  -0.55497  -0.54397  -0.51902  -0.51695
 Alpha  occ. eigenvalues --   -0.48213  -0.45754  -0.45036  -0.42699  -0.41909
 Alpha  occ. eigenvalues --   -0.40742  -0.32020  -0.31166  -0.29229
 Alpha virt. eigenvalues --    0.16347   0.17076   0.19630   0.20207   0.22359
 Alpha virt. eigenvalues --    0.23103   0.23465   0.24945   0.26793   0.27947
 Alpha virt. eigenvalues --    0.28402   0.28955   0.30004   0.30820   0.32498
 Alpha virt. eigenvalues --    0.34106   0.35066   0.36184   0.39630   0.60857
 Alpha virt. eigenvalues --    0.62592   0.64543   0.66527   0.67827   0.69929
 Alpha virt. eigenvalues --    0.71086   0.73027   0.75772   0.77801   0.79654
 Alpha virt. eigenvalues --    0.82566   0.83346   0.84879   0.87357   0.89364
 Alpha virt. eigenvalues --    0.92481   0.92952   0.93738   0.97911   0.98872
 Alpha virt. eigenvalues --    0.99842   1.00842   1.02044   1.03060   1.05026
 Alpha virt. eigenvalues --    1.05522   1.06417   1.06856   1.08198   1.08385
 Alpha virt. eigenvalues --    1.11290   1.15916   1.20405   1.24154   1.35326
 Alpha virt. eigenvalues --    1.43396   1.47549   1.50294   1.52416   1.57874
 Alpha virt. eigenvalues --    1.61111   1.67741   1.70146   1.75112   1.83181
 Alpha virt. eigenvalues --    1.89088   1.93517   1.96340   2.00103   2.00557
 Alpha virt. eigenvalues --    2.04528   2.09506   2.11856   2.15022   2.15657
 Alpha virt. eigenvalues --    2.16542   2.22294   2.23355   2.27324   2.34053
 Alpha virt. eigenvalues --    2.34575   2.37808   2.41805   2.45769   2.49880
 Alpha virt. eigenvalues --    2.54211   2.58156   2.59607   2.63119   2.69063
 Alpha virt. eigenvalues --    2.77062   2.78725   2.81804   2.94784   3.02607
 Alpha virt. eigenvalues --    3.87882   3.88024   4.05624   4.34220   4.35768
 Alpha virt. eigenvalues --    4.53318   4.60581
          Condensed to atoms (all electrons):
               1          2          3          4          5          6
     1  N    6.957365   0.291322  -0.055315   0.002830  -0.000101   0.000001
     2  C    0.291322   4.952852   0.363799  -0.045352   0.004665  -0.000190
     3  C   -0.055315   0.363799   4.958833   0.289362  -0.045967   0.004757
     4  N    0.002830  -0.045352   0.289362   6.981786   0.301732  -0.049488
     5  C   -0.000101   0.004665  -0.045967   0.301732   4.957583   0.361841
     6  C    0.000001  -0.000190   0.004757  -0.049488   0.361841   4.947781
     7  N    0.000000   0.000003   0.000050  -0.012765  -0.061783   0.298874
     8  H    0.320470  -0.032737   0.005702  -0.000127   0.000003   0.000000
     9  H    0.317335  -0.034798  -0.004416  -0.000116  -0.000004   0.000000
    10  H   -0.046957   0.383626  -0.057905   0.001034  -0.000086   0.000015
    11  H   -0.036098   0.381158  -0.028976   0.004032  -0.000104   0.000003
    12  H    0.004136  -0.027007   0.380462  -0.041106  -0.004174  -0.000001
    13  H    0.001382  -0.052831   0.371715  -0.050714  -0.003688   0.000007
    14  H   -0.000132  -0.003498  -0.037916   0.301903  -0.038276  -0.008544
    15  H   -0.000009   0.000136  -0.003164  -0.044874   0.378921  -0.029703
    16  H    0.000010  -0.000123  -0.005055  -0.049629   0.366069  -0.041340
    17  H    0.000000  -0.000003  -0.000094   0.000862  -0.050732   0.384079
    18  H    0.000000   0.000002  -0.000136   0.003982  -0.033523   0.381463
    19  H    0.000000   0.000011  -0.000149   0.007763  -0.004858  -0.032953
    20  H    0.000000   0.000000   0.000000   0.000161   0.006118  -0.033509
               7          8          9         10         11         12
     1  N    0.000000   0.320470   0.317335  -0.046957  -0.036098   0.004136
     2  C    0.000003  -0.032737  -0.034798   0.383626   0.381158  -0.027007
     3  C    0.000050   0.005702  -0.004416  -0.057905  -0.028976   0.380462
     4  N   -0.012765  -0.000127  -0.000116   0.001034   0.004032  -0.041106
     5  C   -0.061783   0.000003  -0.000004  -0.000086  -0.000104  -0.004174
     6  C    0.298874   0.000000   0.000000   0.000015   0.000003  -0.000001
     7  N    6.971505   0.000000   0.000000  -0.000015  -0.000001  -0.000002
     8  H    0.000000   0.427914  -0.030846  -0.002194  -0.004269  -0.000157
     9  H    0.000000  -0.030846   0.438314  -0.005052   0.005705  -0.000566
    10  H   -0.000015  -0.002194  -0.005052   0.642763  -0.044256   0.005962
    11  H   -0.000001  -0.004269   0.005705  -0.044256   0.551507  -0.008142
    12  H   -0.000002  -0.000157  -0.000566   0.005962  -0.008142   0.554785
    13  H   -0.000017  -0.000102   0.004864  -0.006109   0.005990  -0.047271
    14  H    0.015984  -0.000003  -0.000011   0.006121  -0.000656   0.005805
    15  H    0.004091   0.000000   0.000000  -0.000003  -0.000011   0.005529
    16  H    0.001173   0.000000   0.000000  -0.000013   0.000022  -0.001260
    17  H   -0.047239   0.000000   0.000000  -0.000001   0.000002  -0.000042
    18  H   -0.036923   0.000000   0.000000   0.000000   0.000000  -0.000014
    19  H    0.313199   0.000000   0.000000  -0.000003   0.000009  -0.000009
    20  H    0.322731   0.000000   0.000000   0.000000   0.000000   0.000000
              13         14         15         16         17         18
     1  N    0.001382  -0.000132  -0.000009   0.000010   0.000000   0.000000
     2  C   -0.052831  -0.003498   0.000136  -0.000123  -0.000003   0.000002
     3  C    0.371715  -0.037916  -0.003164  -0.005055  -0.000094  -0.000136
     4  N   -0.050714   0.301903  -0.044874  -0.049629   0.000862   0.003982
     5  C   -0.003688  -0.038276   0.378921   0.366069  -0.050732  -0.033523
     6  C    0.000007  -0.008544  -0.029703  -0.041340   0.384079   0.381463
     7  N   -0.000017   0.015984   0.004091   0.001173  -0.047239  -0.036923
     8  H   -0.000102  -0.000003   0.000000   0.000000   0.000000   0.000000
     9  H    0.004864  -0.000011   0.000000   0.000000   0.000000   0.000000
    10  H   -0.006109   0.006121  -0.000003  -0.000013  -0.000001   0.000000
    11  H    0.005990  -0.000656  -0.000011   0.000022   0.000002   0.000000
    12  H   -0.047271   0.005805   0.005529  -0.001260  -0.000042  -0.000014
    13  H    0.654682  -0.004770  -0.001619   0.009865   0.000025   0.000023
    14  H   -0.004770   0.449848   0.006671  -0.004303   0.000776  -0.000190
    15  H   -0.001619   0.006671   0.576882  -0.041433  -0.002541  -0.001148
    16  H    0.009865  -0.004303  -0.041433   0.625183   0.006245  -0.001549
    17  H    0.000025   0.000776  -0.002541   0.006245   0.602040  -0.035143
    18  H    0.000023  -0.000190  -0.001148  -0.001549  -0.035143   0.568465
    19  H    0.000033  -0.003009  -0.000262   0.000332  -0.005866   0.005735
    20  H    0.000000  -0.000229  -0.000148  -0.000143  -0.000152  -0.007219
              19         20
     1  N    0.000000   0.000000
     2  C    0.000011   0.000000
     3  C   -0.000149   0.000000
     4  N    0.007763   0.000161
     5  C   -0.004858   0.006118
     6  C   -0.032953  -0.033509
     7  N    0.313199   0.322731
     8  H    0.000000   0.000000
     9  H    0.000000   0.000000
    10  H   -0.000003   0.000000
    11  H    0.000009   0.000000
    12  H   -0.000009   0.000000
    13  H    0.000033   0.000000
    14  H   -0.003009  -0.000229
    15  H   -0.000262  -0.000148
    16  H    0.000332  -0.000143
    17  H   -0.005866  -0.000152
    18  H    0.005735  -0.007219
    19  H    0.431286  -0.030189
    20  H   -0.030189   0.423503
 Mulliken charges:
               1
     1  N   -0.756240
     2  C   -0.181034
     3  C   -0.135585
     4  N   -0.601276
     5  C   -0.133635
     6  C   -0.183093
     7  N   -0.768863
     8  H    0.316346
     9  H    0.309592
    10  H    0.123074
    11  H    0.174085
    12  H    0.173071
    13  H    0.118535
    14  H    0.314429
    15  H    0.152687
    16  H    0.135947
    17  H    0.147782
    18  H    0.156175
    19  H    0.318927
    20  H    0.319077
 Sum of Mulliken charges =   0.00000
 Mulliken charges with hydrogens summed into heavy atoms:
               1
     1  N   -0.130301
     2  C    0.116124
     3  C    0.156021
     4  N   -0.286846
     5  C    0.154999
     6  C    0.120863
     7  N   -0.130859
 Electronic spatial extent (au):  <R**2>=           1372.4898
 Charge=              0.0000 electrons
 Dipole moment (field-independent basis, Debye):
    X=             -0.5822    Y=              1.2712    Z=             -0.3761  Tot=              1.4479
 Quadrupole moment (field-independent basis, Debye-Ang):
   XX=            -37.9615   YY=            -43.2908   ZZ=            -46.5069
   XY=              4.1121   XZ=             -5.5594   YZ=              1.4781
 Traceless Quadrupole moment (field-independent basis, Debye-Ang):
   XX=              4.6249   YY=             -0.7044   ZZ=             -3.9205
   XY=              4.1121   XZ=             -5.5594   YZ=              1.4781
 Octapole moment (field-independent basis, Debye-Ang**2):
  XXX=            -14.4352  YYY=              7.3551  ZZZ=             -0.2290  XYY=             -6.2739
  XXY=             27.8568  XXZ=             -4.1508  XZZ=              9.0427  YZZ=             -0.5308
  YYZ=              2.5356  XYZ=             -0.7981
 Hexadecapole moment (field-independent basis, Debye-Ang**3):
 XXXX=          -1263.2530 YYYY=           -184.3079 ZZZZ=            -89.8825 XXXY=             49.6412
 XXXZ=            -48.8198 YYYX=            -12.4440 YYYZ=              0.3288 ZZZX=            -10.2127
 ZZZY=              2.6105 XXYY=           -264.8715 XXZZ=           -259.6125 YYZZ=            -48.3641
 XXYZ=             21.2303 YYXZ=             -4.0814 ZZXY=              2.8775
 N-N= 3.202523714060D+02 E-N=-1.394192088351D+03  KE= 3.213346873891D+02
 Calling FoFJK, ICntrl=      2127 FMM=F ISym2X=0 I1Cent= 0 IOpClX= 0 NMat=1 NMatS=1 NMatT=0.
 ***** Axes restored to original set *****
 -------------------------------------------------------------------
 Center     Atomic                   Forces (Hartrees/Bohr)
 Number     Number              X              Y              Z
 -------------------------------------------------------------------
      1        7          -0.000011075    0.000006374   -0.000006340
      2        6           0.000000660    0.000009931   -0.000006060
      3        6           0.000018327   -0.000012673    0.000011555
      4        7          -0.000018556    0.000007587    0.000002991
      5        6           0.000001000   -0.000016490    0.000017706
      6        6          -0.000007251   -0.000010868    0.000003416
      7        7           0.000011653    0.000005031   -0.000013701
      8        1           0.000002835    0.000000781    0.000003923
      9        1           0.000001717   -0.000005387    0.000000129
     10        1           0.000001412   -0.000000001    0.000002733
     11        1          -0.000001833   -0.000004519    0.000001849
     12        1           0.000000951    0.000004422   -0.000004641
     13        1          -0.000001478    0.000004850   -0.000004621
     14        1           0.000002039   -0.000004637   -0.000006485
     15        1           0.000003421    0.000007059   -0.000006108
     16        1           0.000004544    0.000005055   -0.000006453
     17        1          -0.000002010    0.000004471   -0.000003143
     18        1           0.000001747    0.000002024    0.000000300
     19        1          -0.000002932   -0.000001522    0.000006205
     20        1          -0.000005172   -0.000001487    0.000006742
 -------------------------------------------------------------------
 Cartesian Forces:  Max     0.000018556 RMS     0.000007187

 GradGradGradGradGradGradGradGradGradGradGradGradGradGradGradGradGradGrad
 Berny optimization.
 FormGI is forming the generalized inverse of G from B-inverse, IUseBI=4.
 Internal  Forces:  Max     0.000010380 RMS     0.000003245
 Search for a local minimum.
 Step number   1 out of a maximum of  104
 All quantities printed in internal units (Hartrees-Bohrs-Radians)
 Mixed Optimization -- En-DIIS/RFO-DIIS
 Second derivative matrix not updated -- first step.
 ITU=  0
     Eigenvalues ---    0.00437   0.00451   0.00825   0.00899   0.00952
     Eigenvalues ---    0.00974   0.03092   0.04379   0.04420   0.04420
     Eigenvalues ---    0.04442   0.04455   0.04515   0.05631   0.05646
     Eigenvalues ---    0.05652   0.05685   0.08991   0.08995   0.09091
     Eigenvalues ---    0.09156   0.10971   0.12612   0.12624   0.12650
     Eigenvalues ---    0.12715   0.16000   0.16000   0.16000   0.16000
     Eigenvalues ---    0.21888   0.21897   0.21918   0.21923   0.23589
     Eigenvalues ---    0.29905   0.30004   0.32712   0.32982   0.33105
     Eigenvalues ---    0.33531   0.34003   0.34160   0.34183   0.34271
     Eigenvalues ---    0.36282   0.36973   0.37479   0.37690   0.44612
     Eigenvalues ---    0.44866   0.44908   0.45081   0.45127
 RFO step:  Lambda=-1.32589656D-08 EMin= 4.37307027D-03
 Linear search not attempted -- first point.
 Iteration  1 RMS(Cart)=  0.00009861 RMS(Int)=  0.00000001
 Iteration  2 RMS(Cart)=  0.00000001 RMS(Int)=  0.00000000
 Variable       Old X    -DE/DX   Delta X   Delta X   Delta X     New X
                                 (Linear)    (Quad)   (Total)
    R1        2.75887   0.00001   0.00000   0.00002   0.00002   2.75889
    R2        1.91882   0.00000   0.00000  -0.00001  -0.00001   1.91881
    R3        1.92132   0.00000   0.00000  -0.00001  -0.00001   1.92131
    R4        2.87955   0.00001   0.00000   0.00003   0.00003   2.87957
    R5        2.09083   0.00000   0.00000   0.00000   0.00000   2.09083
    R6        2.06874   0.00000   0.00000   0.00000   0.00000   2.06874
    R7        2.74818  -0.00001   0.00000  -0.00003  -0.00003   2.74815
    R8        2.07060   0.00000   0.00000  -0.00001  -0.00001   2.07059
    R9        2.09560   0.00000   0.00000  -0.00001  -0.00001   2.09560
   R10        2.75130   0.00001   0.00000   0.00002   0.00002   2.75132
   R11        1.92429  -0.00001   0.00000  -0.00001  -0.00001   1.92427
   R12        2.88154   0.00000   0.00000  -0.00001  -0.00001   2.88153
   R13        2.07325  -0.00001   0.00000  -0.00002  -0.00002   2.07323
   R14        2.08867  -0.00001   0.00000  -0.00002  -0.00002   2.08865
   R15        2.76943   0.00000   0.00000   0.00001   0.00001   2.76944
   R16        2.08128   0.00000   0.00000   0.00000   0.00000   2.08128
   R17        2.07023   0.00000   0.00000   0.00000   0.00000   2.07023
   R18        1.92083  -0.00001   0.00000  -0.00001  -0.00001   1.92082
   R19        1.91829   0.00000   0.00000  -0.00001  -0.00001   1.91828
    A1        1.92018   0.00000   0.00000  -0.00001  -0.00001   1.92016
    A2        1.91588   0.00000   0.00000   0.00000   0.00000   1.91588
    A3        1.85583   0.00000   0.00000   0.00002   0.00002   1.85585
    A4        1.92165   0.00000   0.00000   0.00002   0.00002   1.92167
    A5        1.98739   0.00000   0.00000   0.00001   0.00001   1.98740
    A6        1.89523   0.00000   0.00000  -0.00001  -0.00001   1.89522
    A7        1.90240   0.00000   0.00000  -0.00004  -0.00004   1.90237
    A8        1.89144   0.00000   0.00000  -0.00001  -0.00001   1.89143
    A9        1.86274   0.00000   0.00000   0.00003   0.00003   1.86277
   A10        1.93380   0.00000   0.00000   0.00000   0.00000   1.93379
   A11        1.89303   0.00000   0.00000  -0.00002  -0.00002   1.89301
   A12        1.90808  -0.00001   0.00000  -0.00006  -0.00006   1.90802
   A13        1.90082   0.00000   0.00000   0.00001   0.00001   1.90083
   A14        1.96659   0.00000   0.00000   0.00003   0.00003   1.96662
   A15        1.85873   0.00000   0.00000   0.00004   0.00004   1.85877
   A16        1.97457   0.00001   0.00000   0.00004   0.00004   1.97461
   A17        1.89160   0.00000   0.00000   0.00005   0.00005   1.89164
   A18        1.86561   0.00000   0.00000   0.00003   0.00003   1.86563
   A19        1.92688   0.00000   0.00000  -0.00001  -0.00001   1.92687
   A20        1.89203   0.00000   0.00000  -0.00004  -0.00004   1.89199
   A21        1.96007   0.00000   0.00000  -0.00001  -0.00001   1.96006
   A22        1.90332   0.00000   0.00000   0.00000   0.00000   1.90331
   A23        1.90719   0.00000   0.00000   0.00000   0.00000   1.90719
   A24        1.87283   0.00000   0.00000   0.00007   0.00007   1.87290
   A25        1.92494   0.00000   0.00000   0.00000   0.00000   1.92494
   A26        1.90013   0.00000   0.00000  -0.00001  -0.00001   1.90013
   A27        1.89557   0.00000   0.00000   0.00002   0.00002   1.89559
   A28        1.97305   0.00000   0.00000  -0.00002  -0.00002   1.97303
   A29        1.89204   0.00000   0.00000  -0.00002  -0.00002   1.89202
   A30        1.87611   0.00000   0.00000   0.00003   0.00003   1.87614
   A31        1.89973   0.00000   0.00000   0.00004   0.00004   1.89977
   A32        1.92141   0.00000   0.00000   0.00002   0.00002   1.92143
   A33        1.84893   0.00000   0.00000   0.00007   0.00007   1.84899
    D1       -3.03851   0.00000   0.00000  -0.00026  -0.00026  -3.03877
    D2        1.10218   0.00000   0.00000  -0.00023  -0.00023   1.10195
    D3       -0.97027   0.00000   0.00000  -0.00027  -0.00027  -0.97053
    D4        1.20825   0.00000   0.00000  -0.00028  -0.00028   1.20798
    D5       -0.93424   0.00000   0.00000  -0.00025  -0.00025  -0.93448
    D6       -3.00668   0.00000   0.00000  -0.00029  -0.00029  -3.00697
    D7        3.13289   0.00000   0.00000   0.00000   0.00000   3.13288
    D8        1.04739   0.00000   0.00000   0.00000   0.00000   1.04739
    D9       -0.97271   0.00000   0.00000  -0.00001  -0.00001  -0.97272
   D10       -0.95863   0.00000   0.00000   0.00000   0.00000  -0.95864
   D11       -3.04413   0.00000   0.00000  -0.00001  -0.00001  -3.04413
   D12        1.21896   0.00000   0.00000  -0.00001  -0.00001   1.21895
   D13        1.06231   0.00000   0.00000   0.00001   0.00001   1.06232
   D14       -1.02318   0.00000   0.00000   0.00001   0.00001  -1.02318
   D15       -3.04328   0.00000   0.00000   0.00000   0.00000  -3.04328
   D16        3.12438   0.00000   0.00000  -0.00009  -0.00009   3.12429
   D17        1.05871   0.00000   0.00000  -0.00018  -0.00018   1.05853
   D18       -1.07799   0.00000   0.00000  -0.00011  -0.00011  -1.07810
   D19        3.13953   0.00000   0.00000  -0.00020  -0.00020   3.13933
   D20        0.98034   0.00000   0.00000  -0.00004  -0.00004   0.98031
   D21       -1.08533   0.00000   0.00000  -0.00013  -0.00013  -1.08545
   D22        3.03496   0.00000   0.00000  -0.00006  -0.00006   3.03490
   D23        0.95113   0.00000   0.00000  -0.00002  -0.00002   0.95112
   D24       -1.11501   0.00000   0.00000  -0.00008  -0.00008  -1.11509
   D25       -1.16752   0.00000   0.00000   0.00004   0.00004  -1.16748
   D26        3.03184   0.00000   0.00000   0.00008   0.00008   3.03192
   D27        0.96569   0.00000   0.00000   0.00002   0.00002   0.96571
   D28        0.94311   0.00000   0.00000   0.00012   0.00012   0.94323
   D29       -1.23112   0.00000   0.00000   0.00015   0.00015  -1.23096
   D30        3.01421   0.00000   0.00000   0.00010   0.00010   3.01432
   D31        3.02008   0.00000   0.00000   0.00006   0.00006   3.02014
   D32        0.84586   0.00000   0.00000   0.00009   0.00009   0.84595
   D33       -1.19200   0.00000   0.00000   0.00004   0.00004  -1.19196
   D34       -1.22089   0.00000   0.00000   0.00014   0.00014  -1.22075
   D35        2.88806   0.00000   0.00000   0.00017   0.00017   2.88824
   D36        0.85021   0.00000   0.00000   0.00013   0.00013   0.85034
   D37       -1.44482   0.00000   0.00000  -0.00008  -0.00008  -1.44490
   D38        2.81892   0.00000   0.00000  -0.00019  -0.00019   2.81873
   D39        0.68697   0.00000   0.00000  -0.00010  -0.00010   0.68686
   D40       -1.33247   0.00000   0.00000  -0.00022  -0.00022  -1.33269
   D41        2.76510   0.00000   0.00000  -0.00009  -0.00009   2.76501
   D42        0.74566   0.00000   0.00000  -0.00020  -0.00020   0.74546
         Item               Value     Threshold  Converged?
 Maximum Force            0.000010     0.000450     YES
 RMS     Force            0.000003     0.000300     YES
 Maximum Displacement     0.000447     0.001800     YES
 RMS     Displacement     0.000099     0.001200     YES
 Predicted change in Energy=-6.629574D-09
 Optimization completed.
    -- Stationary point found.
                           ----------------------------
                           !   Optimized Parameters   !
                           ! (Angstroms and Degrees)  !
 --------------------------                            --------------------------
 ! Name  Definition              Value          Derivative Info.                !
 --------------------------------------------------------------------------------
 ! R1    R(1,2)                  1.4599         -DE/DX =    0.0                 !
 ! R2    R(1,8)                  1.0154         -DE/DX =    0.0                 !
 ! R3    R(1,9)                  1.0167         -DE/DX =    0.0                 !
 ! R4    R(2,3)                  1.5238         -DE/DX =    0.0                 !
 ! R5    R(2,10)                 1.1064         -DE/DX =    0.0                 !
 ! R6    R(2,11)                 1.0947         -DE/DX =    0.0                 !
 ! R7    R(3,4)                  1.4543         -DE/DX =    0.0                 !
 ! R8    R(3,12)                 1.0957         -DE/DX =    0.0                 !
 ! R9    R(3,13)                 1.1089         -DE/DX =    0.0                 !
 ! R10   R(4,5)                  1.4559         -DE/DX =    0.0                 !
 ! R11   R(4,14)                 1.0183         -DE/DX =    0.0                 !
 ! R12   R(5,6)                  1.5248         -DE/DX =    0.0                 !
 ! R13   R(5,15)                 1.0971         -DE/DX =    0.0                 !
 ! R14   R(5,16)                 1.1053         -DE/DX =    0.0                 !
 ! R15   R(6,7)                  1.4655         -DE/DX =    0.0                 !
 ! R16   R(6,17)                 1.1014         -DE/DX =    0.0                 !
 ! R17   R(6,18)                 1.0955         -DE/DX =    0.0                 !
 ! R18   R(7,19)                 1.0165         -DE/DX =    0.0                 !
 ! R19   R(7,20)                 1.0151         -DE/DX =    0.0                 !
 ! A1    A(2,1,8)              110.018          -DE/DX =    0.0                 !
 ! A2    A(2,1,9)              109.7719         -DE/DX =    0.0                 !
 ! A3    A(8,1,9)              106.331          -DE/DX =    0.0                 !
 ! A4    A(1,2,3)              110.1025         -DE/DX =    0.0                 !
 ! A5    A(1,2,10)             113.8689         -DE/DX =    0.0                 !
 ! A6    A(1,2,11)             108.5885         -DE/DX =    0.0                 !
 ! A7    A(3,2,10)             108.9997         -DE/DX =    0.0                 !
 ! A8    A(3,2,11)             108.3717         -DE/DX =    0.0                 !
 ! A9    A(10,2,11)            106.7273         -DE/DX =    0.0                 !
 ! A10   A(2,3,4)              110.7984         -DE/DX =    0.0                 !
 ! A11   A(2,3,12)             108.4625         -DE/DX =    0.0                 !
 ! A12   A(2,3,13)             109.3247         -DE/DX =    0.0                 !
 ! A13   A(4,3,12)             108.9087         -DE/DX =    0.0                 !
 ! A14   A(4,3,13)             112.6773         -DE/DX =    0.0                 !
 ! A15   A(12,3,13)            106.4974         -DE/DX =    0.0                 !
 ! A16   A(3,4,5)              113.1345         -DE/DX =    0.0                 !
 ! A17   A(3,4,14)             108.3805         -DE/DX =    0.0                 !
 ! A18   A(5,4,14)             106.8914         -DE/DX =    0.0                 !
 ! A19   A(4,5,6)              110.4024         -DE/DX =    0.0                 !
 ! A20   A(4,5,15)             108.4051         -DE/DX =    0.0                 !
 ! A21   A(4,5,16)             112.3036         -DE/DX =    0.0                 !
 ! A22   A(6,5,15)             109.0519         -DE/DX =    0.0                 !
 ! A23   A(6,5,16)             109.2742         -DE/DX =    0.0                 !
 ! A24   A(15,5,16)            107.305          -DE/DX =    0.0                 !
 ! A25   A(5,6,7)              110.2911         -DE/DX =    0.0                 !
 ! A26   A(5,6,17)             108.8696         -DE/DX =    0.0                 !
 ! A27   A(5,6,18)             108.6083         -DE/DX =    0.0                 !
 ! A28   A(7,6,17)             113.0474         -DE/DX =    0.0                 !
 ! A29   A(7,6,18)             108.4058         -DE/DX =    0.0                 !
 ! A30   A(17,6,18)            107.4931         -DE/DX =    0.0                 !
 ! A31   A(6,7,19)             108.8465         -DE/DX =    0.0                 !
 ! A32   A(6,7,20)             110.0888         -DE/DX =    0.0                 !
 ! A33   A(19,7,20)            105.9358         -DE/DX =    0.0                 !
 ! D1    D(8,1,2,3)           -174.0941         -DE/DX =    0.0                 !
 ! D2    D(8,1,2,10)            63.1503         -DE/DX =    0.0                 !
 ! D3    D(8,1,2,11)           -55.5921         -DE/DX =    0.0                 !
 ! D4    D(9,1,2,3)             69.2279         -DE/DX =    0.0                 !
 ! D5    D(9,1,2,10)           -53.5277         -DE/DX =    0.0                 !
 ! D6    D(9,1,2,11)          -172.2702         -DE/DX =    0.0                 !
 ! D7    D(1,2,3,4)            179.5011         -DE/DX =    0.0                 !
 ! D8    D(1,2,3,12)            60.011          -DE/DX =    0.0                 !
 ! D9    D(1,2,3,13)           -55.7321         -DE/DX =    0.0                 !
 ! D10   D(10,2,3,4)           -54.9256         -DE/DX =    0.0                 !
 ! D11   D(10,2,3,12)         -174.4157         -DE/DX =    0.0                 !
 ! D12   D(10,2,3,13)           69.8412         -DE/DX =    0.0                 !
 ! D13   D(11,2,3,4)            60.866          -DE/DX =    0.0                 !
 ! D14   D(11,2,3,12)          -58.6241         -DE/DX =    0.0                 !
 ! D15   D(11,2,3,13)         -174.3672         -DE/DX =    0.0                 !
 ! D16   D(2,3,4,5)            179.0137         -DE/DX =    0.0                 !
 ! D17   D(2,3,4,14)            60.6597         -DE/DX =    0.0                 !
 ! D18   D(12,3,4,5)           -61.7644         -DE/DX =    0.0                 !
 ! D19   D(12,3,4,14)          179.8815         -DE/DX =    0.0                 !
 ! D20   D(13,3,4,5)            56.1694         -DE/DX =    0.0                 !
 ! D21   D(13,3,4,14)          -62.1846         -DE/DX =    0.0                 !
 ! D22   D(3,4,5,6)            173.8901         -DE/DX =    0.0                 !
 ! D23   D(3,4,5,15)            54.496          -DE/DX =    0.0                 !
 ! D24   D(3,4,5,16)           -63.8856         -DE/DX =    0.0                 !
 ! D25   D(14,4,5,6)           -66.8942         -DE/DX =    0.0                 !
 ! D26   D(14,4,5,15)          173.7117         -DE/DX =    0.0                 !
 ! D27   D(14,4,5,16)           55.33           -DE/DX =    0.0                 !
 ! D28   D(4,5,6,7)             54.0363         -DE/DX =    0.0                 !
 ! D29   D(4,5,6,17)           -70.5377         -DE/DX =    0.0                 !
 ! D30   D(4,5,6,18)           172.7017         -DE/DX =    0.0                 !
 ! D31   D(15,5,6,7)           173.038          -DE/DX =    0.0                 !
 ! D32   D(15,5,6,17)           48.464          -DE/DX =    0.0                 !
 ! D33   D(15,5,6,18)          -68.2966         -DE/DX =    0.0                 !
 ! D34   D(16,5,6,7)           -69.952          -DE/DX =    0.0                 !
 ! D35   D(16,5,6,17)          165.4739         -DE/DX =    0.0                 !
 ! D36   D(16,5,6,18)           48.7134         -DE/DX =    0.0                 !
 ! D37   D(5,6,7,19)           -82.7822         -DE/DX =    0.0                 !
 ! D38   D(5,6,7,20)           161.5125         -DE/DX =    0.0                 !
 ! D39   D(17,6,7,19)           39.3603         -DE/DX =    0.0                 !
 ! D40   D(17,6,7,20)          -76.3449         -DE/DX =    0.0                 !
 ! D41   D(18,6,7,19)          158.4287         -DE/DX =    0.0                 !
 ! D42   D(18,6,7,20)           42.7234         -DE/DX =    0.0                 !
 --------------------------------------------------------------------------------
 GradGradGradGradGradGradGradGradGradGradGradGradGradGradGradGradGradGrad

                          Input orientation:                          
 ---------------------------------------------------------------------
 Center     Atomic      Atomic             Coordinates (Angstroms)
 Number     Number       Type             X           Y           Z
 ---------------------------------------------------------------------
      1          7           0        0.945505   -0.077879   -0.078033
      2          6           0        2.399513   -0.009597    0.034211
      3          6           0        2.898381   -1.057653    1.021453
      4          7           0        4.347368   -1.010712    1.136124
      5          6           0        4.877646   -1.978279    2.086037
      6          6           0        6.401990   -1.980959    2.047103
      7          7           0        6.918011   -0.624738    2.252371
      8          1           0        0.623103    0.552340   -0.805982
      9          1           0        0.518338    0.242408    0.787217
     10          1           0        2.778730    0.983526    0.340910
     11          1           0        2.835702   -0.224266   -0.946653
     12          1           0        2.603021   -2.047358    0.655614
     13          1           0        2.387616   -0.916680    1.995623
     14          1           0        4.612952   -0.087742    1.474505
     15          1           0        4.510542   -2.973980    1.807683
     16          1           0        4.539430   -1.780229    3.119488
     17          1           0        6.733256   -2.429150    1.097156
     18          1           0        6.771277   -2.618014    2.858240
     19          1           0        6.896753   -0.127680    1.365989
     20          1           0        7.894267   -0.661160    2.528144
 ---------------------------------------------------------------------
                    Distance matrix (angstroms):
                    1          2          3          4          5
     1  N    0.000000
     2  C    1.459932   0.000000
     3  C    2.445925   1.523790   0.000000
     4  N    3.730552   2.451648   1.454275   0.000000
     5  C    4.874058   3.771848   2.428658   1.455924   0.000000
     6  C    6.157203   4.894673   3.765598   2.448007   1.524844
     7  N    6.434334   5.071040   4.226109   2.828991   2.454146
     8  H    1.015397   2.043852   3.332940   4.481635   5.733144
     9  H    1.016717   2.041897   2.722063   4.043947   5.061812
    10  H    2.159353   1.106419   2.154963   2.658942   4.027804
    11  H    2.085372   1.094732   2.138201   2.691020   4.055034
    12  H    2.676647   2.140099   1.095715   2.085251   2.687899
    13  H    2.661450   2.161036   1.108946   2.142010   2.708397
    14  H    3.982542   2.641944   2.021321   1.018288   2.004536
    15  H    4.965160   4.048359   2.624792   2.081355   1.097118
    16  H    5.102786   4.151303   2.759875   2.136066   1.105276
    17  H    6.356698   5.075965   4.073451   2.775959   2.150456
    18  H    7.000972   5.821624   4.561562   3.380007   2.142756
    19  H    6.124134   4.691773   4.119530   2.707757   2.831957
    20  H    7.444304   6.069313   5.233183   3.826278   3.321185
                    6          7          8          9         10
     6  C    0.000000
     7  N    1.465519   0.000000
     8  H    6.924828   7.096823   0.000000
     9  H    6.414673   6.622267   1.626444   0.000000
    10  H    4.982698   4.834650   2.479518   2.420293   0.000000
    11  H    4.976641   5.201862   2.349149   2.931598   1.766303
    12  H    4.046334   4.815872   3.579772   3.099395   3.052240
    13  H    4.153377   4.547046   3.622225   2.509567   2.549868
    14  H    2.666982   2.491332   4.639960   4.165000   2.407701
    15  H    2.149649   3.393021   5.863306   5.227255   4.562066
    16  H    2.158571   2.782930   6.015631   5.069490   4.296382
    17  H    1.101368   2.150479   7.060113   6.771890   5.277930
    18  H    1.095517   2.088483   7.828009   7.181254   5.937043
    19  H    2.035522   1.016460   6.673722   6.415303   4.386761
    20  H    2.049429   1.015113   8.090662   7.632273   5.801526
                   11         12         13         14         15
    11  H    0.000000
    12  H    2.438250   0.000000
    13  H    3.055684   1.766481   0.000000
    14  H    3.006537   2.924124   2.431218   0.000000
    15  H    4.237025   2.413406   2.962198   2.907209   0.000000
    16  H    4.675170   3.145110   2.576644   2.361331   1.773896
    17  H    4.922357   4.171279   4.688219   3.181238   2.396278
    18  H    5.974613   4.748850   4.780705   3.602134   2.518195
    19  H    4.674374   4.756672   4.620744   2.286726   3.740390
    20  H    6.152574   5.781453   5.538238   3.493707   4.161466
                   16         17         18         19         20
    16  H    0.000000
    17  H    3.053489   0.000000
    18  H    2.398182   1.771591   0.000000
    19  H    3.370853   2.322879   2.905912   0.000000
    20  H    3.585657   2.553715   2.280208   1.621802   0.000000
 Stoichiometry    C4H13N3
 Framework group  C1[X(C4H13N3)]
 Deg. of freedom    54
 Full point group                 C1      NOp   1
 Largest Abelian subgroup         C1      NOp   1
 Largest concise Abelian subgroup C1      NOp   1
                         Standard orientation:                         
 ---------------------------------------------------------------------
 Center     Atomic      Atomic             Coordinates (Angstroms)
 Number     Number       Type             X           Y           Z
 ---------------------------------------------------------------------
      1          7           0        3.528930    0.000343   -0.041732
      2          6           0        2.201490    0.554151    0.208467
      3          6           0        1.133129   -0.489550   -0.093573
      4          7           0       -0.195812    0.042915    0.161992
      5          6           0       -1.259048   -0.907115   -0.132435
      6          6           0       -2.609293   -0.343793    0.297283
      7          7           0       -2.825821    0.973746   -0.306831
      8          1           0        4.242095    0.661008    0.251437
      9          1           0        3.661036   -0.138575   -1.040212
     10          1           0        1.982725    1.471451   -0.370208
     11          1           0        2.130062    0.824735    1.266825
     12          1           0        1.299967   -1.355234    0.557079
     13          1           0        1.256290   -0.850002   -1.135046
     14          1           0       -0.341524    0.847501   -0.444902
     15          1           0       -1.062431   -1.830981    0.425670
     16          1           0       -1.299101   -1.172866   -1.204539
     17          1           0       -2.654052   -0.326241    1.397601
     18          1           0       -3.397430   -1.018968   -0.053623
     19          1           0       -2.354100    1.675277    0.257549
     20          1           0       -3.812284    1.211718   -0.280088
 ---------------------------------------------------------------------
 Rotational constants (GHZ):           8.4139376           0.9048776           0.8501185

 Test job not archived.
 1\1\GINC-SHANG\FOpt\RwB97XD\6-31G(d)\C4H13N3\JWANG\17-Feb-2023\0\\#wB9
 7xd/6-31G* SCF=tight Test opt\\remark line goes here\\0,1\N,0.94550513
 27,-0.0778790571,-0.0780325317\C,2.3995130794,-0.0095969684,0.03421124
 81\C,2.8983807753,-1.057652536,1.0214531944\N,4.3473675544,-1.01071166
 52,1.1361236074\C,4.8776455536,-1.9782788014,2.0860368581\C,6.40199022
 83,-1.9809586214,2.0471033434\N,6.9180105933,-0.6247375663,2.252370917
 4\H,0.6231027047,0.5523398592,-0.8059823753\H,0.5183381184,0.242408029
 1,0.7872173599\H,2.7787297378,0.9835259445,0.3409101635\H,2.8357023315
 ,-0.224265731,-0.9466529592\H,2.6030205769,-2.0473575954,0.6556136642\
 H,2.3876159725,-0.9166797973,1.9956227177\H,4.6129522607,-0.0877418514
 ,1.4745052882\H,4.5105417749,-2.9739800533,1.8076830324\H,4.5394300959
 ,-1.7802291162,3.1194877085\H,6.7332562333,-2.4291499119,1.0971560833\
 H,6.7712773854,-2.6180144931,2.8582404931\H,6.8967525258,-0.127679822,
 1.3659886679\H,7.8942673652,-0.6611602455,2.5281435187\\Version=ES64L-
 G16RevA.03\State=1-A\HF=-324.3799595\RMSD=7.245e-09\RMSF=7.187e-06\Dip
 ole=0.3483914,0.4463768,0.0622646\Quadrupole=2.6239279,0.5894209,-3.21
 33488,-4.4235528,-0.9655119,-2.9421615\PG=C01 [X(C4H13N3)]\\@


 THEREFORE SHALL EVIL COME UPON THEE...
 THOU SHALT NOT KNOW FROM WHENCE IT RISETH...
 AND MISCHIEF SHALL FALL UPON THEE...
 THOU SHALT NOT BE ABLE TO PUT IT OFF...
 AND DESOLATION SHALL COME UPON THEE SUDDENLY...
 WHICH THOU SHALT NOT KNOW...

                                         ISAIAH 47.11
 Job cpu time:       0 days  0 hours  3 minutes 11.5 seconds.
 Elapsed time:       0 days  0 hours  0 minutes 16.1 seconds.
 File lengths (MBytes):  RWF=     15 Int=      0 D2E=      0 Chk=      3 Scr=      1
 Normal termination of Gaussian 16 at Fri Feb 17 10:41:30 2023.
 Initial command:
 /home2/jwang/software/g16/l1.exe "/archive/gaussian/Gau-52298.inp" -scrdir="/archive/gaussian/"
 Entering Link 1 = /home2/jwang/software/g16/l1.exe PID=     52505.
  
 Copyright (c) 1988,1990,1992,1993,1995,1998,2003,2009,2016,
            Gaussian, Inc.  All Rights Reserved.
  
 This is part of the Gaussian(R) 16 program.  It is based on
 the Gaussian(R) 09 system (copyright 2009, Gaussian, Inc.),
 the Gaussian(R) 03 system (copyright 2003, Gaussian, Inc.),
 the Gaussian(R) 98 system (copyright 1998, Gaussian, Inc.),
 the Gaussian(R) 94 system (copyright 1995, Gaussian, Inc.),
 the Gaussian 92(TM) system (copyright 1992, Gaussian, Inc.),
 the Gaussian 90(TM) system (copyright 1990, Gaussian, Inc.),
 the Gaussian 88(TM) system (copyright 1988, Gaussian, Inc.),
 the Gaussian 86(TM) system (copyright 1986, Carnegie Mellon
 University), and the Gaussian 82(TM) system (copyright 1983,
 Carnegie Mellon University). Gaussian is a federally registered
 trademark of Gaussian, Inc.
  
 This software contains proprietary and confidential information,
 including trade secrets, belonging to Gaussian, Inc.
  
 This software is provided under written license and may be
 used, copied, transmitted, or stored only in accord with that
 written license.
  
 The following legend is applicable only to US Government
 contracts under FAR:
  
                    RESTRICTED RIGHTS LEGEND
  
 Use, reproduction and disclosure by the US Government is
 subject to restrictions as set forth in subparagraphs (a)
 and (c) of the Commercial Computer Software - Restricted
 Rights clause in FAR 52.227-19.
  
 Gaussian, Inc.
 340 Quinnipiac St., Bldg. 40, Wallingford CT 06492
  
  
 ---------------------------------------------------------------
 Warning -- This program may not be used in any manner that
 competes with the business of Gaussian, Inc. or will provide
 assistance to any competitor of Gaussian, Inc.  The licensee
 of this program is prohibited from giving any competitor of
 Gaussian, Inc. access to this program.  By using this program,
 the user acknowledges that Gaussian, Inc. is engaged in the
 business of creating and licensing software in the field of
 computational chemistry and represents and warrants to the
 licensee that it is not a competitor of Gaussian, Inc. and that
 it will not use this program in any manner prohibited above.
 ---------------------------------------------------------------
  

 Cite this work as:
 Gaussian 16, Revision A.03,
 M. J. Frisch, G. W. Trucks, H. B. Schlegel, G. E. Scuseria, 
 M. A. Robb, J. R. Cheeseman, G. Scalmani, V. Barone, 
 G. A. Petersson, H. Nakatsuji, X. Li, M. Caricato, A. V. Marenich, 
 J. Bloino, B. G. Janesko, R. Gomperts, B. Mennucci, H. P. Hratchian, 
 J. V. Ortiz, A. F. Izmaylov, J. L. Sonnenberg, D. Williams-Young, 
 F. Ding, F. Lipparini, F. Egidi, J. Goings, B. Peng, A. Petrone, 
 T. Henderson, D. Ranasinghe, V. G. Zakrzewski, J. Gao, N. Rega, 
 G. Zheng, W. Liang, M. Hada, M. Ehara, K. Toyota, R. Fukuda, 
 J. Hasegawa, M. Ishida, T. Nakajima, Y. Honda, O. Kitao, H. Nakai, 
 T. Vreven, K. Throssell, J. A. Montgomery, Jr., J. E. Peralta, 
 F. Ogliaro, M. J. Bearpark, J. J. Heyd, E. N. Brothers, K. N. Kudin, 
 V. N. Staroverov, T. A. Keith, R. Kobayashi, J. Normand, 
 K. Raghavachari, A. P. Rendell, J. C. Burant, S. S. Iyengar, 
 J. Tomasi, M. Cossi, J. M. Millam, M. Klene, C. Adamo, R. Cammi, 
 J. W. Ochterski, R. L. Martin, K. Morokuma, O. Farkas, 
 J. B. Foresman, and D. J. Fox, Gaussian, Inc., Wallingford CT, 2016.
 
 ******************************************
 Gaussian 16:  ES64L-G16RevA.03 25-Dec-2016
                17-Feb-2023 
 ******************************************
 %nproc=12
 Will use up to   12 processors via shared memory.
 %mem=12GB
 %chk=c100
 ----------------------------------------------------------------------
 #HF/6-31G* SCF=tight Test Pop=MK iop(6/33=2) iop(6/42=6) geom=allcheck
 ----------------------------------------------------------------------
 1/29=7,38=1,172=1/1;
 2/12=2,40=1/2;
 3/5=1,6=6,7=1,11=9,14=-4,25=1,30=1/1,2,3;
 4//1;
 5/5=2,32=2,38=5/2;
 6/7=2,8=2,9=2,10=2,15=8,20=1,28=1,33=2,42=6/1,2;
 99/5=1,9=1/99;
 Structure from the checkpoint file:  "c100.chk"
 ---------------------
 remark line goes here
 ---------------------
 Charge =  0 Multiplicity = 1
 Redundant internal coordinates found in file.  (old form).
 N,0,0.9455051327,-0.0778790571,-0.0780325317
 C,0,2.3995130794,-0.0095969684,0.0342112481
 C,0,2.8983807753,-1.057652536,1.0214531944
 N,0,4.3473675544,-1.0107116652,1.1361236074
 C,0,4.8776455536,-1.9782788014,2.0860368581
 C,0,6.4019902283,-1.9809586214,2.0471033434
 N,0,6.9180105933,-0.6247375663,2.2523709174
 H,0,0.6231027047,0.5523398592,-0.8059823753
 H,0,0.5183381184,0.2424080291,0.7872173599
 H,0,2.7787297378,0.9835259445,0.3409101635
 H,0,2.8357023315,-0.224265731,-0.9466529592
 H,0,2.6030205769,-2.0473575954,0.6556136642
 H,0,2.3876159725,-0.9166797973,1.9956227177
 H,0,4.6129522607,-0.0877418514,1.4745052882
 H,0,4.5105417749,-2.9739800533,1.8076830324
 H,0,4.5394300959,-1.7802291162,3.1194877085
 H,0,6.7332562333,-2.4291499119,1.0971560833
 H,0,6.7712773854,-2.6180144931,2.8582404931
 H,0,6.8967525258,-0.127679822,1.3659886679
 H,0,7.8942673652,-0.6611602455,2.5281435187
 Recover connectivity data from disk.
                           ----------------------------
                           !    Current Parameters    !
                           ! (Angstroms and Degrees)  !
 --------------------------                            --------------------------
 ! Name  Definition              Value                                          !
 --------------------------------------------------------------------------------
 ! R1    R(1,2)                  1.4599                                         !
 ! R2    R(1,8)                  1.0154                                         !
 ! R3    R(1,9)                  1.0167                                         !
 ! R4    R(2,3)                  1.5238                                         !
 ! R5    R(2,10)                 1.1064                                         !
 ! R6    R(2,11)                 1.0947                                         !
 ! R7    R(3,4)                  1.4543                                         !
 ! R8    R(3,12)                 1.0957                                         !
 ! R9    R(3,13)                 1.1089                                         !
 ! R10   R(4,5)                  1.4559                                         !
 ! R11   R(4,14)                 1.0183                                         !
 ! R12   R(5,6)                  1.5248                                         !
 ! R13   R(5,15)                 1.0971                                         !
 ! R14   R(5,16)                 1.1053                                         !
 ! R15   R(6,7)                  1.4655                                         !
 ! R16   R(6,17)                 1.1014                                         !
 ! R17   R(6,18)                 1.0955                                         !
 ! R18   R(7,19)                 1.0165                                         !
 ! R19   R(7,20)                 1.0151                                         !
 ! A1    A(2,1,8)              110.018                                          !
 ! A2    A(2,1,9)              109.7719                                         !
 ! A3    A(8,1,9)              106.331                                          !
 ! A4    A(1,2,3)              110.1025                                         !
 ! A5    A(1,2,10)             113.8689                                         !
 ! A6    A(1,2,11)             108.5885                                         !
 ! A7    A(3,2,10)             108.9997                                         !
 ! A8    A(3,2,11)             108.3717                                         !
 ! A9    A(10,2,11)            106.7273                                         !
 ! A10   A(2,3,4)              110.7984                                         !
 ! A11   A(2,3,12)             108.4625                                         !
 ! A12   A(2,3,13)             109.3247                                         !
 ! A13   A(4,3,12)             108.9087                                         !
 ! A14   A(4,3,13)             112.6773                                         !
 ! A15   A(12,3,13)            106.4974                                         !
 ! A16   A(3,4,5)              113.1345                                         !
 ! A17   A(3,4,14)             108.3805                                         !
 ! A18   A(5,4,14)             106.8914                                         !
 ! A19   A(4,5,6)              110.4024                                         !
 ! A20   A(4,5,15)             108.4051                                         !
 ! A21   A(4,5,16)             112.3036                                         !
 ! A22   A(6,5,15)             109.0519                                         !
 ! A23   A(6,5,16)             109.2742                                         !
 ! A24   A(15,5,16)            107.305                                          !
 ! A25   A(5,6,7)              110.2911                                         !
 ! A26   A(5,6,17)             108.8696                                         !
 ! A27   A(5,6,18)             108.6083                                         !
 ! A28   A(7,6,17)             113.0474                                         !
 ! A29   A(7,6,18)             108.4058                                         !
 ! A30   A(17,6,18)            107.4931                                         !
 ! A31   A(6,7,19)             108.8465                                         !
 ! A32   A(6,7,20)             110.0888                                         !
 ! A33   A(19,7,20)            105.9358                                         !
 ! D1    D(8,1,2,3)           -174.0941                                         !
 ! D2    D(8,1,2,10)            63.1503                                         !
 ! D3    D(8,1,2,11)           -55.5921                                         !
 ! D4    D(9,1,2,3)             69.2279                                         !
 ! D5    D(9,1,2,10)           -53.5277                                         !
 ! D6    D(9,1,2,11)          -172.2702                                         !
 ! D7    D(1,2,3,4)            179.5011                                         !
 ! D8    D(1,2,3,12)            60.011                                          !
 ! D9    D(1,2,3,13)           -55.7321                                         !
 ! D10   D(10,2,3,4)           -54.9256                                         !
 ! D11   D(10,2,3,12)         -174.4157                                         !
 ! D12   D(10,2,3,13)           69.8412                                         !
 ! D13   D(11,2,3,4)            60.866                                          !
 ! D14   D(11,2,3,12)          -58.6241                                         !
 ! D15   D(11,2,3,13)         -174.3672                                         !
 ! D16   D(2,3,4,5)            179.0137                                         !
 ! D17   D(2,3,4,14)            60.6597                                         !
 ! D18   D(12,3,4,5)           -61.7644                                         !
 ! D19   D(12,3,4,14)          179.8815                                         !
 ! D20   D(13,3,4,5)            56.1694                                         !
 ! D21   D(13,3,4,14)          -62.1846                                         !
 ! D22   D(3,4,5,6)            173.8901                                         !
 ! D23   D(3,4,5,15)            54.496                                          !
 ! D24   D(3,4,5,16)           -63.8856                                         !
 ! D25   D(14,4,5,6)           -66.8942                                         !
 ! D26   D(14,4,5,15)          173.7117                                         !
 ! D27   D(14,4,5,16)           55.33                                           !
 ! D28   D(4,5,6,7)             54.0363                                         !
 ! D29   D(4,5,6,17)           -70.5377                                         !
 ! D30   D(4,5,6,18)           172.7017                                         !
 ! D31   D(15,5,6,7)           173.038                                          !
 ! D32   D(15,5,6,17)           48.464                                          !
 ! D33   D(15,5,6,18)          -68.2966                                         !
 ! D34   D(16,5,6,7)           -69.952                                          !
 ! D35   D(16,5,6,17)          165.4739                                         !
 ! D36   D(16,5,6,18)           48.7134                                         !
 ! D37   D(5,6,7,19)           -82.7822                                         !
 ! D38   D(5,6,7,20)           161.5125                                         !
 ! D39   D(17,6,7,19)           39.3603                                         !
 ! D40   D(17,6,7,20)          -76.3449                                         !
 ! D41   D(18,6,7,19)          158.4287                                         !
 ! D42   D(18,6,7,20)           42.7234                                         !
 --------------------------------------------------------------------------------
                          Input orientation:                          
 ---------------------------------------------------------------------
 Center     Atomic      Atomic             Coordinates (Angstroms)
 Number     Number       Type             X           Y           Z
 ---------------------------------------------------------------------
      1          7           0        0.945505   -0.077879   -0.078033
      2          6           0        2.399513   -0.009597    0.034211
      3          6           0        2.898381   -1.057653    1.021453
      4          7           0        4.347368   -1.010712    1.136124
      5          6           0        4.877646   -1.978279    2.086037
      6          6           0        6.401990   -1.980959    2.047103
      7          7           0        6.918011   -0.624738    2.252371
      8          1           0        0.623103    0.552340   -0.805982
      9          1           0        0.518338    0.242408    0.787217
     10          1           0        2.778730    0.983526    0.340910
     11          1           0        2.835702   -0.224266   -0.946653
     12          1           0        2.603021   -2.047358    0.655614
     13          1           0        2.387616   -0.916680    1.995623
     14          1           0        4.612952   -0.087742    1.474505
     15          1           0        4.510542   -2.973980    1.807683
     16          1           0        4.539430   -1.780229    3.119488
     17          1           0        6.733256   -2.429150    1.097156
     18          1           0        6.771277   -2.618014    2.858240
     19          1           0        6.896753   -0.127680    1.365989
     20          1           0        7.894267   -0.661160    2.528144
 ---------------------------------------------------------------------
                    Distance matrix (angstroms):
                    1          2          3          4          5
     1  N    0.000000
     2  C    1.459932   0.000000
     3  C    2.445925   1.523790   0.000000
     4  N    3.730552   2.451648   1.454275   0.000000
     5  C    4.874058   3.771848   2.428658   1.455924   0.000000
     6  C    6.157203   4.894673   3.765598   2.448007   1.524844
     7  N    6.434334   5.071040   4.226109   2.828991   2.454146
     8  H    1.015397   2.043852   3.332940   4.481635   5.733144
     9  H    1.016717   2.041897   2.722063   4.043947   5.061812
    10  H    2.159353   1.106419   2.154963   2.658942   4.027804
    11  H    2.085372   1.094732   2.138201   2.691020   4.055034
    12  H    2.676647   2.140099   1.095715   2.085251   2.687899
    13  H    2.661450   2.161036   1.108946   2.142010   2.708397
    14  H    3.982542   2.641944   2.021321   1.018288   2.004536
    15  H    4.965160   4.048359   2.624792   2.081355   1.097118
    16  H    5.102786   4.151303   2.759875   2.136066   1.105276
    17  H    6.356698   5.075965   4.073451   2.775959   2.150456
    18  H    7.000972   5.821624   4.561562   3.380007   2.142756
    19  H    6.124134   4.691773   4.119530   2.707757   2.831957
    20  H    7.444304   6.069313   5.233183   3.826278   3.321185
                    6          7          8          9         10
     6  C    0.000000
     7  N    1.465519   0.000000
     8  H    6.924828   7.096823   0.000000
     9  H    6.414673   6.622267   1.626444   0.000000
    10  H    4.982698   4.834650   2.479518   2.420293   0.000000
    11  H    4.976641   5.201862   2.349149   2.931598   1.766303
    12  H    4.046334   4.815872   3.579772   3.099395   3.052240
    13  H    4.153377   4.547046   3.622225   2.509567   2.549868
    14  H    2.666982   2.491332   4.639960   4.165000   2.407701
    15  H    2.149649   3.393021   5.863306   5.227255   4.562066
    16  H    2.158571   2.782930   6.015631   5.069490   4.296382
    17  H    1.101368   2.150479   7.060113   6.771890   5.277930
    18  H    1.095517   2.088483   7.828009   7.181254   5.937043
    19  H    2.035522   1.016460   6.673722   6.415303   4.386761
    20  H    2.049429   1.015113   8.090662   7.632273   5.801526
                   11         12         13         14         15
    11  H    0.000000
    12  H    2.438250   0.000000
    13  H    3.055684   1.766481   0.000000
    14  H    3.006537   2.924124   2.431218   0.000000
    15  H    4.237025   2.413406   2.962198   2.907209   0.000000
[...]
 4867 Fit      -0.003263
 4868 Fit      -0.004737
 4869 Fit      -0.006434
 4870 Fit      -0.008579
 4871 Fit      -0.011434
 4872 Fit      -0.015382
 4873 Fit      -0.021034
 4874 Fit      -0.003683
 4875 Fit      -0.005154
 4876 Fit      -0.006892
 4877 Fit      -0.009120
 4878 Fit      -0.012126
 4879 Fit      -0.016351
 4880 Fit      -0.003545
 4881 Fit      -0.004921
 4882 Fit      -0.006537
 4883 Fit      -0.008604
 4884 Fit      -0.011403
 4885 Fit      -0.015370
 4886 Fit      -0.003320
 4887 Fit      -0.004493
 4888 Fit      -0.005868
 4889 Fit      -0.007614
 4890 Fit      -0.009959
 4891 Fit      -0.013257
 4892 Fit      -0.006738
 4893 Fit      -0.008546
 4894 Fit      -0.003522
 4895 Fit      -0.003759
 4896 Fit      -0.004207
 4897 Fit      -0.004809
 4898 Fit      -0.005535
 4899 Fit      -0.006346
 4900 Fit      -0.007126
 4901 Fit      -0.002971
 4902 Fit      -0.003133
 4903 Fit      -0.003394
 4904 Fit      -0.003693
 4905 Fit      -0.003937
 4906 Fit      -0.003950
 4907 Fit      -0.003357
 4908 Fit      -0.002251
 4909 Fit      -0.002242
 4910 Fit      -0.002266
 4911 Fit      -0.002275
 4912 Fit      -0.002172
 4913 Fit      -0.001783
 4914 Fit      -0.000793
 4915 Fit       0.001350
 4916 Fit      -0.001557
 4917 Fit      -0.001443
 4918 Fit      -0.001293
 4919 Fit      -0.001050
 4920 Fit      -0.000578
 4921 Fit       0.000354
 4922 Fit       0.002107
 4923 Fit       0.008922
 4924 Fit       0.007095
 4925 Fit       0.005523
 4926 Fit       0.003902
 4927 Fit       0.001986
 4928 Fit      -0.000036
 4929 Fit      -0.000909
 4930 Fit      -0.000683
 4931 Fit      -0.000373
 4932 Fit       0.000103
 4933 Fit       0.000906
 4934 Fit       0.002272
 4935 Fit       0.004454
 4936 Fit       0.007485
 4937 Fit       0.007812
 4938 Fit       0.008986
 4939 Fit       0.008676
 4940 Fit       0.007374
 4941 Fit       0.005779
 4942 Fit       0.004143
 4943 Fit       0.002435
 4944 Fit       0.000795
 4945 Fit      -0.000336
 4946 Fit      -0.000710
 4947 Fit      -0.000610
 4948 Fit      -0.000378
 4949 Fit      -0.000077
 4950 Fit       0.000339
 4951 Fit       0.000971
 4952 Fit       0.001982
 4953 Fit       0.003551
 4954 Fit       0.005670
 4955 Fit       0.005758
 4956 Fit       0.006376
 4957 Fit       0.005655
 4958 Fit       0.004195
 4959 Fit       0.002545
 4960 Fit       0.001150
 4961 Fit       0.000459
 4962 Fit       0.000428
 4963 Fit       0.000770
 4964 Fit       0.001432
 4965 Fit       0.002539
 4966 Fit       0.004143
 4967 Fit       0.004179
 4968 Fit       0.004149
 4969 Fit       0.002732
 4970 Fit       0.001638
 4971 Fit       0.001735
 4972 Fit       0.002809
 4973 Fit       0.002851
 4974 Fit       0.002988
 4975 Fit       0.004589
 4976 Fit       0.005418
 4977 Fit       0.006499
 4978 Fit       0.006194
 4979 Fit       0.006211
 4980 Fit       0.006264
 4981 Fit       0.005333
 4982 Fit       0.006611
 4983 Fit       0.005059
 4984 Fit       0.002816
 4985 Fit       0.007010
 4986 Fit       0.005192
 4987 Fit       0.002653
 4988 Fit      -0.001242
 4989 Fit       0.006580
 4990 Fit       0.004398
 4991 Fit       0.001227
 4992 Fit      -0.003649
 4993 Fit       0.005883
 4994 Fit       0.003503
 4995 Fit      -0.000057
 4996 Fit      -0.005439
 4997 Fit       0.006895
 4998 Fit       0.006194
 4999 Fit       0.004575
 5000 Fit       0.001843
 5001 Fit      -0.002387
 5002 Fit      -0.008512
 5003 Fit       0.004406
 5004 Fit       0.004322
 5005 Fit       0.002613
 5006 Fit      -0.000902
 5007 Fit      -0.006225
 5008 Fit       0.001620
 5009 Fit       0.000382
 5010 Fit      -0.003975
 5011 Fit      -0.006977
 5012 Fit      -0.004347
 5013 Fit      -0.000431
 5014 Fit      -0.002000
 5015 Fit      -0.006045
 5016 Fit      -0.007685
 5017 Fit      -0.009518
 5018 Fit      -0.003625
 5019 Fit      -0.004953
 5020 Fit      -0.008952
 5021 Fit      -0.001726
 5022 Fit      -0.001885
 5023 Fit      -0.002606
 5024 Fit      -0.003935
 5025 Fit      -0.005990
 5026 Fit      -0.000322
 5027 Fit      -0.000608
 5028 Fit      -0.001135
 5029 Fit      -0.001937
 5030 Fit      -0.003060
 5031 Fit      -0.004570
 5032 Fit      -0.006635
 5033 Fit       0.000743
 5034 Fit       0.000458
 5035 Fit       0.000047
 5036 Fit      -0.000512
 5037 Fit      -0.001249
 5038 Fit      -0.002184
 5039 Fit      -0.003329
 5040 Fit       0.001675
 5041 Fit       0.001384
 5042 Fit       0.001023
 5043 Fit       0.000588
 5044 Fit       0.000054
 5045 Fit      -0.000606
 5046 Fit      -0.001404
 5047 Fit      -0.002325
 5048 Fit       0.002153
 5049 Fit       0.001765
 5050 Fit       0.001359
 5051 Fit       0.000918
 5052 Fit       0.000411
 5053 Fit      -0.000186
 5054 Fit      -0.000886
 5055 Fit      -0.001673
 5056 Fit      -0.002464
 5057 Fit       0.002760
 5058 Fit       0.002250
 5059 Fit       0.001783
 5060 Fit       0.001329
 5061 Fit       0.000850
 5062 Fit       0.000311
 5063 Fit      -0.000314
 5064 Fit      -0.001029
 5065 Fit      -0.001794
 5066 Fit       0.002628
 5067 Fit       0.002063
 5068 Fit       0.001570
 5069 Fit       0.001097
 5070 Fit       0.000597
 5071 Fit       0.000038
 5072 Fit      -0.000602
 5073 Fit      -0.001322
 5074 Fit      -0.002072
 5075 Fit       0.003222
 5076 Fit       0.002441
 5077 Fit       0.001835
 5078 Fit       0.001320
 5079 Fit       0.000832
 5080 Fit       0.000323
 5081 Fit      -0.000242
 5082 Fit      -0.000886
 5083 Fit      -0.001615
 5084 Fit      -0.002394
 5085 Fit       0.002574
 5086 Fit       0.001820
 5087 Fit       0.001225
 5088 Fit       0.000700
 5089 Fit       0.000182
 5090 Fit      -0.000377
 5091 Fit      -0.001008
 5092 Fit      -0.001736
 5093 Fit      -0.002565
 5094 Fit       0.001215
 5095 Fit       0.000610
 5096 Fit       0.000065
 5097 Fit      -0.000484
 5098 Fit      -0.001086
 5099 Fit      -0.001776
 5100 Fit      -0.002585
 5101 Fit      -0.000144
 5102 Fit      -0.000690
 5103 Fit      -0.001255
 5104 Fit      -0.001881
 5105 Fit      -0.002602
 5106 Fit       0.000287
 5107 Fit      -0.000238
 5108 Fit      -0.000770
 5109 Fit      -0.001300
 5110 Fit      -0.001825
 5111 Fit      -0.002341
 5112 Fit      -0.000223
 5113 Fit      -0.000255
 5114 Fit      -0.000479
 5115 Fit      -0.000806
 5116 Fit      -0.001187
 5117 Fit      -0.001591
 5118 Fit      -0.001994
 5119 Fit      -0.002372
 5120 Fit      -0.002688
 5121 Fit      -0.003124
 5122 Fit      -0.001831
 5123 Fit      -0.001211
 5124 Fit      -0.000996
 5125 Fit      -0.001022
 5126 Fit      -0.001186
 5127 Fit      -0.001426
 5128 Fit      -0.001695
 5129 Fit      -0.001949
 5130 Fit      -0.002135
 5131 Fit      -0.002164
 5132 Fit      -0.009727
 5133 Fit      -0.006093
 5134 Fit      -0.003800
 5135 Fit      -0.002467
 5136 Fit      -0.001768
 5137 Fit      -0.001468
 5138 Fit      -0.001410
 5139 Fit      -0.001487
 5140 Fit      -0.001620
 5141 Fit      -0.001737
 5142 Fit      -0.001755
 5143 Fit      -0.001560
 5144 Fit      -0.002029
 5145 Fit      -0.004616
 5146 Fit      -0.008646
 5147 Fit      -0.013462
 5148 Fit      -0.012935
 5149 Fit      -0.009093
 5150 Fit      -0.006069
 5151 Fit      -0.004018
 5152 Fit      -0.002764
 5153 Fit      -0.002073
 5154 Fit      -0.001748
 5155 Fit      -0.001635
 5156 Fit      -0.001619
 5157 Fit      -0.001600
 5158 Fit      -0.001479
 5159 Fit      -0.001173
 5160 Fit      -0.001158
 5161 Fit      -0.001490
 5162 Fit      -0.002571
 5163 Fit      -0.004657
 5164 Fit      -0.007680
 5165 Fit      -0.010763
 5166 Fit      -0.012411
 5167 Fit      -0.011754
 5168 Fit      -0.009435
 5169 Fit      -0.006782
 5170 Fit      -0.004646
 5171 Fit      -0.003230
 5172 Fit      -0.002410
 5173 Fit      -0.001989
 5174 Fit      -0.001786
 5175 Fit      -0.001653
 5176 Fit      -0.001481
 5177 Fit      -0.001260
 5178 Fit      -0.002048
 5179 Fit      -0.002874
 5180 Fit      -0.004668
 5181 Fit      -0.007005
 5182 Fit      -0.008411
 5183 Fit      -0.007788
 5184 Fit      -0.005893
 5185 Fit      -0.004079
 5186 Fit      -0.002908
 5187 Fit      -0.002301
 5188 Fit      -0.002013
 5189 Fit      -0.001890
 5190 Fit      -0.002968
 5191 Fit      -0.004374
 5192 Fit      -0.005734
 5193 Fit      -0.004917
 5194 Fit      -0.003423
 5195 Fit      -0.002739
 5196 Fit      -0.003929
 5197 Fit      -0.001014
 5198 Fit      -0.002647
 5199 Fit      -0.001761
 5200 Fit      -0.000241
 5201 Fit       0.000229
 5202 Fit      -0.000392
 5203 Fit      -0.001706
 5204 Fit      -0.004818
 5205 Fit      -0.004356
 5206 Fit      -0.002626
 5207 Fit      -0.000697
 5208 Fit       0.000621
 5209 Fit       0.001192
 5210 Fit       0.001189
 5211 Fit       0.000800
 5212 Fit       0.000114
 5213 Fit      -0.000904
 5214 Fit      -0.002301
 5215 Fit      -0.003855
 5216 Fit      -0.007758
 5217 Fit      -0.007654
 5218 Fit      -0.006035
 5219 Fit      -0.003578
 5220 Fit      -0.001199
 5221 Fit       0.000555
 5222 Fit       0.001601
 5223 Fit       0.002079
 5224 Fit       0.002153
 5225 Fit       0.001955
 5226 Fit       0.001588
 5227 Fit       0.001112
 5228 Fit       0.000521
 5229 Fit      -0.000249
 5230 Fit      -0.001307
 5231 Fit      -0.002758
 5232 Fit      -0.004587
 5233 Fit      -0.006484
 5234 Fit      -0.011847
 5235 Fit      -0.012203
 5236 Fit      -0.010546
 5237 Fit      -0.007450
 5238 Fit      -0.003985
 5239 Fit      -0.001030
 5240 Fit       0.001039
 5241 Fit       0.002273
 5242 Fit       0.002902
 5243 Fit       0.003123
 5244 Fit       0.003055
 5245 Fit       0.002787
 5246 Fit       0.002401
 5247 Fit       0.001966
 5248 Fit       0.001511
 5249 Fit       0.001030
 5250 Fit       0.000470
 5251 Fit      -0.000254
 5252 Fit      -0.001267
 5253 Fit      -0.002714
 5254 Fit      -0.004709
 5255 Fit      -0.007215
 5256 Fit      -0.009864
 5257 Fit      -0.012923
 5258 Fit      -0.007814
 5259 Fit      -0.003160
 5260 Fit       0.000306
 5261 Fit       0.002460
 5262 Fit       0.003599
 5263 Fit       0.004122
 5264 Fit       0.004289
 5265 Fit       0.004202
 5266 Fit       0.003908
 5267 Fit       0.003468
 5268 Fit       0.002963
 5269 Fit       0.002460
 5270 Fit       0.001995
 5271 Fit       0.001569
 5272 Fit       0.001152
 5273 Fit       0.000687
 5274 Fit       0.000088
 5275 Fit      -0.000769
 5276 Fit      -0.002058
 5277 Fit      -0.003993
 5278 Fit      -0.006757
 5279 Fit      -0.010359
 5280 Fit      -0.006808
 5281 Fit       0.005550
 5282 Fit       0.005780
 5283 Fit       0.005802
 5284 Fit       0.005675
 5285 Fit       0.005355
 5286 Fit       0.004847
 5287 Fit       0.004220
 5288 Fit       0.003568
 5289 Fit       0.002966
 5290 Fit       0.002451
 5291 Fit       0.002028
 5292 Fit       0.001674
 5293 Fit       0.001352
 5294 Fit       0.001011
 5295 Fit       0.000578
 5296 Fit      -0.000053
 5297 Fit       0.004819
 5298 Fit       0.004191
 5299 Fit       0.003725
 5300 Fit       0.003359
 5301 Fit       0.003065
 5302 Fit       0.002843
 5303 Fit       0.006662
 5304 Fit       0.005624
 5305 Fit       0.004903
 5306 Fit       0.004381
 5307 Fit       0.003978
 5308 Fit       0.003649
 5309 Fit       0.003374
 5310 Fit       0.003166
 5311 Fit       0.003063
 5312 Fit       0.007434
 5313 Fit       0.006229
 5314 Fit       0.005420
 5315 Fit       0.004850
 5316 Fit       0.004418
 5317 Fit       0.004064
 5318 Fit       0.003760
 5319 Fit       0.003504
 5320 Fit       0.003321
 5321 Fit       0.003267
 5322 Fit       0.009879
 5323 Fit       0.007871
 5324 Fit       0.006592
 5325 Fit       0.005748
 5326 Fit       0.005161
 5327 Fit       0.004719
 5328 Fit       0.004357
 5329 Fit       0.004039
 5330 Fit       0.003754
 5331 Fit       0.003511
 5332 Fit       0.003341
 5333 Fit       0.003303
 5334 Fit       0.008809
 5335 Fit       0.007206
 5336 Fit       0.006185
 5337 Fit       0.005502
 5338 Fit       0.005010
 5339 Fit       0.004623
 5340 Fit       0.004288
 5341 Fit       0.003979
 5342 Fit       0.003690
 5343 Fit       0.003430
 5344 Fit       0.003221
 5345 Fit       0.003103
 5346 Fit       0.009475
 5347 Fit       0.007514
 5348 Fit       0.006318
 5349 Fit       0.005551
 5350 Fit       0.005023
 5351 Fit       0.004622
 5352 Fit       0.004280
 5353 Fit       0.003961
 5354 Fit       0.003650
 5355 Fit       0.003345
 5356 Fit       0.003056
 5357 Fit       0.002796
 5358 Fit       0.008232
 5359 Fit       0.006594
 5360 Fit       0.005605
 5361 Fit       0.004974
 5362 Fit       0.004534
 5363 Fit       0.004185
 5364 Fit       0.003869
 5365 Fit       0.003553
 5366 Fit       0.003224
 5367 Fit       0.002883
 5368 Fit       0.002530
 5369 Fit       0.006074
 5370 Fit       0.005113
 5371 Fit       0.004503
 5372 Fit       0.004097
 5373 Fit       0.003792
 5374 Fit       0.003521
 5375 Fit       0.003242
 5376 Fit       0.002935
 5377 Fit       0.002592
 5378 Fit       0.002211
 5379 Fit       0.001782
 5380 Fit       0.003107
 5381 Fit       0.003011
 5382 Fit       0.002896
 5383 Fit       0.002751
 5384 Fit       0.002554
 5385 Fit       0.002289
 5386 Fit       0.001950
 5387 Fit       0.001539
 5388 Fit       0.001057
 5389 Fit       0.000605
 5390 Fit       0.001187
 5391 Fit       0.001430
 5392 Fit       0.001461
 5393 Fit       0.001325
 5394 Fit       0.001042
 5395 Fit       0.000630
 5396 Fit      -0.001460
 5397 Fit      -0.000506
 5398 Fit      -0.000144
 5399 Fit      -0.000171
 5400 Fit      -0.000494
 5401 Fit      -0.004033
 5402 Fit      -0.002480
 5403 Fit      -0.002104
 5404 Fit      -0.002513
 5405 Fit      -0.006554
 5406 Fit      -0.004804
 5407 Fit      -0.000714
 5408 Fit       0.002793
 5409 Fit       0.004822
 5410 Fit      -0.004836
 5411 Fit      -0.000253
 5412 Fit       0.003551
 5413 Fit       0.005831
 5414 Fit       0.006814
 5415 Fit       0.006799
 5416 Fit      -0.004057
 5417 Fit       0.000998
 5418 Fit       0.004438
 5419 Fit       0.006574
 5420 Fit       0.007787
 5421 Fit       0.008359
 5422 Fit       0.008448
 5423 Fit      -0.001549
 5424 Fit       0.002893
 5425 Fit       0.005738
 5426 Fit       0.007522
 5427 Fit       0.008613
 5428 Fit       0.009255
 5429 Fit       0.009603
 5430 Fit       0.009731
 5431 Fit       0.001681
 5432 Fit       0.005020
 5433 Fit       0.007124
 5434 Fit       0.008458
 5435 Fit       0.009312
 5436 Fit       0.009880
 5437 Fit       0.010300
 5438 Fit       0.010665
 5439 Fit       0.000759
 5440 Fit       0.004350
 5441 Fit       0.006589
 5442 Fit       0.008023
 5443 Fit       0.008964
 5444 Fit       0.009608
 5445 Fit       0.010096
 5446 Fit       0.010550
 5447 Fit       0.011077
 5448 Fit       0.001416
 5449 Fit       0.004653
 5450 Fit       0.006615
 5451 Fit       0.007857
 5452 Fit       0.008673
 5453 Fit       0.009240
 5454 Fit       0.009689
 5455 Fit       0.010138
 5456 Fit       0.010714
 5457 Fit       0.005270
 5458 Fit       0.006634
 5459 Fit       0.007506
 5460 Fit       0.008088
 5461 Fit       0.008506
 5462 Fit       0.008852
 5463 Fit       0.009225
 5464 Fit       0.009739
 5465 Fit       0.006253
 5466 Fit       0.006684
 5467 Fit       0.007000
 5468 Fit       0.007238
 5469 Fit       0.007435
 5470 Fit       0.007636
 5471 Fit       0.007912
 5472 Fit       0.008367
 5473 Fit       0.006792
 5474 Fit       0.006235
 5475 Fit       0.005976
 5476 Fit       0.005862
 5477 Fit       0.005840
 5478 Fit       0.005918
 5479 Fit       0.006163
 5480 Fit       0.005818
 5481 Fit       0.004600
 5482 Fit       0.003950
 5483 Fit       0.003592
 5484 Fit       0.003421
 5485 Fit       0.010926
 5486 Fit       0.010767
 5487 Fit       0.010336
 5488 Fit       0.011688
 5489 Fit       0.011735
 5490 Fit       0.011715
 5491 Fit       0.011506
 5492 Fit       0.011033
 5493 Fit       0.010242
 5494 Fit       0.012025
 5495 Fit       0.012170
 5496 Fit       0.012320
 5497 Fit       0.012356
 5498 Fit       0.012208
 5499 Fit       0.011838
 5500 Fit       0.011222
 5501 Fit       0.011927
 5502 Fit       0.012170
 5503 Fit       0.012450
 5504 Fit       0.012659
 5505 Fit       0.012733
 5506 Fit       0.012636
 5507 Fit       0.012353
 5508 Fit       0.011881
 5509 Fit       0.011224
 5510 Fit       0.011252
 5511 Fit       0.011592
 5512 Fit       0.012017
 5513 Fit       0.012404
 5514 Fit       0.012681
 5515 Fit       0.012804
 5516 Fit       0.012753
 5517 Fit       0.012525
 5518 Fit       0.012131
 5519 Fit       0.011596
 5520 Fit       0.010419
 5521 Fit       0.011007
 5522 Fit       0.011572
 5523 Fit       0.012041
 5524 Fit       0.012369
 5525 Fit       0.012531
 5526 Fit       0.012517
 5527 Fit       0.012333
 5528 Fit       0.011998
 5529 Fit       0.011550
 5530 Fit       0.011063
 5531 Fit       0.008808
 5532 Fit       0.009632
 5533 Fit       0.010389
 5534 Fit       0.011023
 5535 Fit       0.011499
 5536 Fit       0.011797
 5537 Fit       0.011908
 5538 Fit       0.011838
 5539 Fit       0.011602
 5540 Fit       0.011232
 5541 Fit       0.010788
 5542 Fit       0.007302
 5543 Fit       0.008389
 5544 Fit       0.009303
 5545 Fit       0.010018
 5546 Fit       0.010516
 5547 Fit       0.010793
 5548 Fit       0.010852
 5549 Fit       0.010706
 5550 Fit       0.010382
 5551 Fit       0.009928
 5552 Fit       0.009429
 5553 Fit       0.004509
 5554 Fit       0.006024
 5555 Fit       0.007254
 5556 Fit       0.008199
 5557 Fit       0.008860
 5558 Fit       0.009238
 5559 Fit       0.009344
 5560 Fit       0.009194
 5561 Fit       0.008816
 5562 Fit       0.008258
 5563 Fit       0.007594
 5564 Fit       0.002956
 5565 Fit       0.004584
 5566 Fit       0.005813
 5567 Fit       0.006667
 5568 Fit       0.007164
 5569 Fit       0.007320
 5570 Fit       0.007155
 5571 Fit       0.006694
 5572 Fit       0.005969
 5573 Fit       0.005024
 5574 Fit       0.000583
 5575 Fit       0.002432
 5576 Fit       0.003706
 5577 Fit       0.004456
 5578 Fit       0.004715
 5579 Fit       0.004509
 5580 Fit       0.003860
 5581 Fit       0.002777
 5582 Fit      -0.002047
 5583 Fit      -0.000119
 5584 Fit       0.001020
 5585 Fit       0.001439
 5586 Fit       0.001174
 5587 Fit       0.000232
 5588 Fit      -0.002874
 5589 Fit      -0.002673
 -----------------------------------------------------------------
 Leave Link  602 at Fri Feb 17 10:41:34 2023, MaxMem=  1610612736 cpu:               1.4 elap:               0.1

 Test job not archived.
 1\1\GINC-SHANG\SP\RHF\6-31G(d)\C4H13N3\JWANG\17-Feb-2023\0\\#HF/6-31G*
  SCF=tight Test Pop=MK iop(6/33=2) iop(6/42=6) geom=allcheck\\remark l
 ine goes here\\0,1\N,0,0.9455051327,-0.0778790571,-0.0780325317\C,0,2.
 3995130794,-0.0095969684,0.0342112481\C,0,2.8983807753,-1.057652536,1.
 0214531944\N,0,4.3473675544,-1.0107116652,1.1361236074\C,0,4.877645553
 6,-1.9782788014,2.0860368581\C,0,6.4019902283,-1.9809586214,2.04710334
 34\N,0,6.9180105933,-0.6247375663,2.2523709174\H,0,0.6231027047,0.5523
 398592,-0.8059823753\H,0,0.5183381184,0.2424080291,0.7872173599\H,0,2.
 7787297378,0.9835259445,0.3409101635\H,0,2.8357023315,-0.224265731,-0.
 9466529592\H,0,2.6030205769,-2.0473575954,0.6556136642\H,0,2.387615972
 5,-0.9166797973,1.9956227177\H,0,4.6129522607,-0.0877418514,1.47450528
 82\H,0,4.5105417749,-2.9739800533,1.8076830324\H,0,4.5394300959,-1.780
 2291162,3.1194877085\H,0,6.7332562333,-2.4291499119,1.0971560833\H,0,6
 .7712773854,-2.6180144931,2.8582404931\H,0,6.8967525258,-0.127679822,1
 .3659886679\H,0,7.8942673652,-0.6611602455,2.5281435187\\Version=ES64L
 -G16RevA.03\State=1-A\HF=-322.3500953\RMSD=2.331e-09\Dipole=0.3516333,
 0.4229708,0.0867512\Quadrupole=2.2575435,0.8421779,-3.0997213,-4.60326
 15,-1.2295372,-3.0291919\PG=C01 [X(C4H13N3)]\\@


 We're simply so accustomed to the marvels of everyday thought
 that we never wonder about it.
 -- Marvin Minsky in "Why people think computers are smart"
 Job cpu time:       0 days  0 hours  0 minutes 42.6 seconds.
 Elapsed time:       0 days  0 hours  0 minutes  3.6 seconds.
 File lengths (MBytes):  RWF=     14 Int=      0 D2E=      0 Chk=      3 Scr=      1
 Normal termination of Gaussian 16 at Fri Feb 17 10:41:34 2023.
