 Entering Gaussian System, Link 0=g09
 Input=GF2.com
 Output=GF2.log
 Initial command:
 /home/case/qchem/g09revD01/g09/l1.exe "/u1/haichit/research/rna_project/resp_fit/GF2/Gau-10138.inp" -scrdir="/u1/haichit/research/rna_project/resp_fit/GF2/"
 Entering Link 1 = /home/case/qchem/g09revD01/g09/l1.exe PID=     10142.
  
 Copyright (c) 1988,1990,1992,1993,1995,1998,2003,2009,2013,
            Gaussian, Inc.  All Rights Reserved.
  
 This is part of the Gaussian(R) 09 program.  It is based on
 the Gaussian(R) 03 system (copyright 2003, Gaussian, Inc.),
 the Gaussian(R) 98 system (copyright 1998, Gaussian, Inc.),
 the Gaussian(R) 94 system (copyright 1995, Gaussian, Inc.),
 the Gaussian 92(TM) system (copyright 1992, Gaussian, Inc.),
 the Gaussian 90(TM) system (copyright 1990, Gaussian, Inc.),
 the Gaussian 88(TM) system (copyright 1988, Gaussian, Inc.),
 the Gaussian 86(TM) system (copyright 1986, Carnegie Mellon
 University), and the Gaussian 82(TM) system (copyright 1983,
 Carnegie Mellon University). Gaussian is a federally registered
 trademark of Gaussian, Inc.
  
 This software contains proprietary and confidential information,
 including trade secrets, belonging to Gaussian, Inc.
  
 This software is provided under written license and may be
 used, copied, transmitted, or stored only in accord with that
 written license.
  
 The following legend is applicable only to US Government
 contracts under FAR:
  
                    RESTRICTED RIGHTS LEGEND
  
 Use, reproduction and disclosure by the US Government is
 subject to restrictions as set forth in subparagraphs (a)
 and (c) of the Commercial Computer Software - Restricted
 Rights clause in FAR 52.227-19.
  
 Gaussian, Inc.
 340 Quinnipiac St., Bldg. 40, Wallingford CT 06492
  
  
 ---------------------------------------------------------------
 Warning -- This program may not be used in any manner that
 competes with the business of Gaussian, Inc. or will provide
 assistance to any competitor of Gaussian, Inc.  The licensee
 of this program is prohibited from giving any competitor of
 Gaussian, Inc. access to this program.  By using this program,
 the user acknowledges that Gaussian, Inc. is engaged in the
 business of creating and licensing software in the field of
 computational chemistry and represents and warrants to the
 licensee that it is not a competitor of Gaussian, Inc. and that
 it will not use this program in any manner prohibited above.
 ---------------------------------------------------------------
  

 Cite this work as:
 Gaussian 09, Revision D.01,
 M. J. Frisch, G. W. Trucks, H. B. Schlegel, G. E. Scuseria, 
 M. A. Robb, J. R. Cheeseman, G. Scalmani, V. Barone, B. Mennucci, 
 G. A. Petersson, H. Nakatsuji, M. Caricato, X. Li, H. P. Hratchian, 
 A. F. Izmaylov, J. Bloino, G. Zheng, J. L. Sonnenberg, M. Hada, 
 M. Ehara, K. Toyota, R. Fukuda, J. Hasegawa, M. Ishida, T. Nakajima, 
 Y. Honda, O. Kitao, H. Nakai, T. Vreven, J. A. Montgomery, Jr., 
 J. E. Peralta, F. Ogliaro, M. Bearpark, J. J. Heyd, E. Brothers, 
 K. N. Kudin, V. N. Staroverov, T. Keith, R. Kobayashi, J. Normand, 
 K. Raghavachari, A. Rendell, J. C. Burant, S. S. Iyengar, J. Tomasi, 
 M. Cossi, N. Rega, J. M. Millam, M. Klene, J. E. Knox, J. B. Cross, 
 V. Bakken, C. Adamo, J. Jaramillo, R. Gomperts, R. E. Stratmann, 
 O. Yazyev, A. J. Austin, R. Cammi, C. Pomelli, J. W. Ochterski, 
 R. L. Martin, K. Morokuma, V. G. Zakrzewski, G. A. Voth, 
 P. Salvador, J. J. Dannenberg, S. Dapprich, A. D. Daniels, 
 O. Farkas, J. B. Foresman, J. V. Ortiz, J. Cioslowski, 
 and D. J. Fox, Gaussian, Inc., Wallingford CT, 2013.
 
 ******************************************
 Gaussian 09:  AS64L-G09RevD.01 24-Apr-2013
                21-Jul-2015 
 ******************************************
 %chk=GF2_geo
 -------------------
 #P b3lyp/6-31G* Opt
 -------------------
 1/14=-1,18=20,19=15,26=3,38=1/1,3;
 2/9=110,12=2,17=6,18=5,40=1/2;
 3/5=1,6=6,7=1,11=2,16=1,25=1,30=1,71=1,74=-5/1,2,3;
 4//1;
 5/5=2,38=5/2;
 6/7=2,8=2,9=2,10=2,28=1/1;
 7//1,2,3,16;
 1/14=-1,18=20,19=15,26=3/3(2);
 2/9=110/2;
 99//99;
 2/9=110/2;
 3/5=1,6=6,7=1,11=2,16=1,25=1,30=1,71=1,74=-5/1,2,3;
 4/5=5,16=3,69=1/1;
 5/5=2,38=5/2;
 7//1,2,3,16;
 1/14=-1,18=20,19=15,26=3/3(-5);
 2/9=110/2;
 6/7=2,8=2,9=2,10=2,19=2,28=1/1;
 99/9=1/99;
 Leave Link    1 at Tue Jul 21 23:24:41 2015, MaxMem=           0 cpu:         0.1
 (Enter /home/case/qchem/g09revD01/g09/l101.exe)
 -----------
 AF2 geo opt
 -----------
 Symbolic Z-matrix:
 Charge =  0 Multiplicity = 1
 P                     2.894    -8.196     3.748 
 O                     2.963    -8.604     5.168 
 O                     1.681    -7.47      3.309 
 O                     4.232    -7.36      3.48 
 C                     5.48     -8.064     3.35 
 H                     5.429    -8.766     2.518 
 H                     5.679    -8.609     4.273 
 C                     6.614    -7.068     3.1 
 H                     7.569    -7.59      3.049 
 O                     6.436    -6.504     1.77 
 C                     6.837    -5.134     1.77 
 H                     7.552    -4.957     0.967 
 N                     5.671    -4.305     1.39 
 C                     4.338    -4.651     1.32 
 H                     4.03     -5.656     1.568 
 N                     3.55     -3.676     0.94 
 C                     4.42     -2.604     0.74 
 C                     4.148    -1.276     0.33 
 O                     3.067    -0.759     0.04 
 N                     5.325    -0.513     0.26 
 H                     5.241     0.446    -0.012 
 C                     6.597    -0.986     0.55 
 N                     7.579    -0.093     0.42 
 H                     7.491     0.869     0.126 
 H                     8.514    -0.419     0.618 
 N                     6.848    -2.225     0.94 
 C                     5.712    -2.974     1.01 
 C                     6.646    -5.859     4.02 
 H                     5.915    -5.354     4.651 
 C                     7.38     -4.83      3.17 
 H                     7.201    -3.929     3.756 
 F                     8.772    -5.106     3.14 
 O                     7.297    -6.145     5.25 
 H                     7.342    -5.41      5.865 
 
 Add atom      1 valence  3 ND=      2 dihedral       2      1      3      4
 NAtoms=     34 NQM=       34 NQMF=       0 NMMI=      0 NMMIF=      0
                NMic=       0 NMicF=      0.
                    Isotopes and Nuclear Properties:
 (Nuclear quadrupole moments (NQMom) in fm**2, nuclear magnetic moments (NMagM)
  in nuclear magnetons)

  Atom         1           2           3           4           5           6           7           8           9          10
 IAtWgt=          31          16          16          16          12           1           1          12           1          16
 AtmWgt=  30.9737634  15.9949146  15.9949146  15.9949146  12.0000000   1.0078250   1.0078250  12.0000000   1.0078250  15.9949146
 NucSpn=           1           0           0           0           0           1           1           0           1           0
 AtZEff=   0.0000000   0.0000000   0.0000000   0.0000000   0.0000000   0.0000000   0.0000000   0.0000000   0.0000000   0.0000000
 NQMom=    0.0000000   0.0000000   0.0000000   0.0000000   0.0000000   0.0000000   0.0000000   0.0000000   0.0000000   0.0000000
 NMagM=    1.1316000   0.0000000   0.0000000   0.0000000   0.0000000   2.7928460   2.7928460   0.0000000   2.7928460   0.0000000
 AtZNuc=  15.0000000   8.0000000   8.0000000   8.0000000   6.0000000   1.0000000   1.0000000   6.0000000   1.0000000   8.0000000

  Atom        11          12          13          14          15          16          17          18          19          20
 IAtWgt=          12           1          14          12           1          14          12          12          16          14
 AtmWgt=  12.0000000   1.0078250  14.0030740  12.0000000   1.0078250  14.0030740  12.0000000  12.0000000  15.9949146  14.0030740
 NucSpn=           0           1           2           0           1           2           0           0           0           2
 AtZEff=   0.0000000   0.0000000   0.0000000   0.0000000   0.0000000   0.0000000   0.0000000   0.0000000   0.0000000   0.0000000
 NQMom=    0.0000000   0.0000000   2.0440000   0.0000000   0.0000000   2.0440000   0.0000000   0.0000000   0.0000000   2.0440000
 NMagM=    0.0000000   2.7928460   0.4037610   0.0000000   2.7928460   0.4037610   0.0000000   0.0000000   0.0000000   0.4037610
 AtZNuc=   6.0000000   1.0000000   7.0000000   6.0000000   1.0000000   7.0000000   6.0000000   6.0000000   8.0000000   7.0000000

  Atom        21          22          23          24          25          26          27          28          29          30
 IAtWgt=           1          12          14           1           1          14          12          12           1          12
 AtmWgt=   1.0078250  12.0000000  14.0030740   1.0078250   1.0078250  14.0030740  12.0000000  12.0000000   1.0078250  12.0000000
 NucSpn=           1           0           2           1           1           2           0           0           1           0
 AtZEff=   0.0000000   0.0000000   0.0000000   0.0000000   0.0000000   0.0000000   0.0000000   0.0000000   0.0000000   0.0000000
 NQMom=    0.0000000   0.0000000   2.0440000   0.0000000   0.0000000   2.0440000   0.0000000   0.0000000   0.0000000   0.0000000
 NMagM=    2.7928460   0.0000000   0.4037610   2.7928460   2.7928460   0.4037610   0.0000000   0.0000000   2.7928460   0.0000000
 AtZNuc=   1.0000000   6.0000000   7.0000000   1.0000000   1.0000000   7.0000000   6.0000000   6.0000000   1.0000000   6.0000000

  Atom        31          32          33          34
 IAtWgt=           1          19          16           1
 AtmWgt=   1.0078250  18.9984033  15.9949146   1.0078250
 NucSpn=           1           1           0           1
 AtZEff=   0.0000000   0.0000000   0.0000000   0.0000000
 NQMom=    0.0000000   0.0000000   0.0000000   0.0000000
 NMagM=    2.7928460   2.6288670   0.0000000   2.7928460
 AtZNuc=   1.0000000   9.0000000   8.0000000   1.0000000
 Leave Link  101 at Tue Jul 21 23:24:41 2015, MaxMem=    33554432 cpu:         0.3
 (Enter /home/case/qchem/g09revD01/g09/l103.exe)

 GradGradGradGradGradGradGradGradGradGradGradGradGradGradGradGradGradGrad
 Berny optimization.
 Initialization pass.
                           ----------------------------
                           !    Initial Parameters    !
                           ! (Angstroms and Degrees)  !
 --------------------------                            --------------------------
 ! Name  Definition              Value          Derivative Info.                !
 --------------------------------------------------------------------------------
 ! R1    R(1,2)                  1.4791         estimate D2E/DX2                !
 ! R2    R(1,3)                  1.4803         estimate D2E/DX2                !
 ! R3    R(1,4)                  1.6003         estimate D2E/DX2                !
 ! R4    R(4,5)                  1.4388         estimate D2E/DX2                !
 ! R5    R(5,6)                  1.0898         estimate D2E/DX2                !
 ! R6    R(5,7)                  1.0902         estimate D2E/DX2                !
 ! R7    R(5,8)                  1.5299         estimate D2E/DX2                !
 ! R8    R(8,9)                  1.0895         estimate D2E/DX2                !
 ! R9    R(8,10)                 1.4556         estimate D2E/DX2                !
 ! R10   R(8,28)                 1.5196         estimate D2E/DX2                !
 ! R11   R(10,11)                1.4275         estimate D2E/DX2                !
 ! R12   R(11,12)                1.0897         estimate D2E/DX2                !
 ! R13   R(11,13)                1.4803         estimate D2E/DX2                !
 ! R14   R(11,30)                1.5321         estimate D2E/DX2                !
 ! R15   R(13,14)                1.379          estimate D2E/DX2                !
 ! R16   R(13,27)                1.3848         estimate D2E/DX2                !
 ! R17   R(14,15)                1.08           estimate D2E/DX2                !
 ! R18   R(14,16)                1.3099         estimate D2E/DX2                !
 ! R19   R(16,17)                1.395          estimate D2E/DX2                !
 ! R20   R(17,18)                1.4162         estimate D2E/DX2                !
 ! R21   R(17,27)                1.3708         estimate D2E/DX2                !
 ! R22   R(18,19)                1.2329         estimate D2E/DX2                !
 ! R23   R(18,20)                1.4044         estimate D2E/DX2                !
 ! R24   R(20,21)                1.0004         estimate D2E/DX2                !
 ! R25   R(20,22)                1.3877         estimate D2E/DX2                !
 ! R26   R(22,23)                1.3337         estimate D2E/DX2                !
 ! R27   R(22,26)                1.323          estimate D2E/DX2                !
 ! R28   R(23,24)                1.0098         estimate D2E/DX2                !
 ! R29   R(23,25)                1.0098         estimate D2E/DX2                !
 ! R30   R(26,27)                1.3625         estimate D2E/DX2                !
 ! R31   R(28,29)                1.0897         estimate D2E/DX2                !
 ! R32   R(28,30)                1.5232         estimate D2E/DX2                !
 ! R33   R(28,33)                1.4207         estimate D2E/DX2                !
 ! R34   R(30,31)                1.0896         estimate D2E/DX2                !
 ! R35   R(30,32)                1.4194         estimate D2E/DX2                !
 ! R36   R(33,34)                0.9594         estimate D2E/DX2                !
 ! A1    A(2,1,3)              117.2741         estimate D2E/DX2                !
 ! A2    A(2,1,4)              105.4193         estimate D2E/DX2                !
 ! A3    A(3,1,4)              112.2876         estimate D2E/DX2                !
 ! A4    A(1,4,5)              118.9964         estimate D2E/DX2                !
 ! A5    A(4,5,6)              110.0955         estimate D2E/DX2                !
 ! A6    A(4,5,7)              109.0531         estimate D2E/DX2                !
 ! A7    A(4,5,8)              109.8264         estimate D2E/DX2                !
 ! A8    A(6,5,7)              109.4438         estimate D2E/DX2                !
 ! A9    A(6,5,8)              109.2267         estimate D2E/DX2                !
 ! A10   A(7,5,8)              109.1781         estimate D2E/DX2                !
 ! A11   A(5,8,9)              110.209          estimate D2E/DX2                !
 ! A12   A(5,8,10)             108.1155         estimate D2E/DX2                !
 ! A13   A(5,8,28)             115.7632         estimate D2E/DX2                !
 ! A14   A(9,8,10)             104.4809         estimate D2E/DX2                !
 ! A15   A(9,8,28)             113.0205         estimate D2E/DX2                !
 ! A16   A(10,8,28)            104.3293         estimate D2E/DX2                !
 ! A17   A(8,10,11)            109.726          estimate D2E/DX2                !
 ! A18   A(10,11,12)           109.8904         estimate D2E/DX2                !
 ! A19   A(10,11,13)           108.4337         estimate D2E/DX2                !
 ! A20   A(10,11,30)           106.8577         estimate D2E/DX2                !
 ! A21   A(12,11,13)           103.6926         estimate D2E/DX2                !
 ! A22   A(12,11,30)           114.1173         estimate D2E/DX2                !
 ! A23   A(13,11,30)           113.7427         estimate D2E/DX2                !
 ! A24   A(11,13,14)           129.3426         estimate D2E/DX2                !
 ! A25   A(11,13,27)           125.8314         estimate D2E/DX2                !
 ! A26   A(14,13,27)           104.8245         estimate D2E/DX2                !
 ! A27   A(13,14,15)           119.8359         estimate D2E/DX2                !
 ! A28   A(13,14,16)           114.1717         estimate D2E/DX2                !
 ! A29   A(15,14,16)           125.9923         estimate D2E/DX2                !
 ! A30   A(14,16,17)           103.7917         estimate D2E/DX2                !
 ! A31   A(16,17,18)           129.9641         estimate D2E/DX2                !
 ! A32   A(16,17,27)           110.6186         estimate D2E/DX2                !
 ! A33   A(18,17,27)           119.4161         estimate D2E/DX2                !
 ! A34   A(17,18,19)           129.0302         estimate D2E/DX2                !
 ! A35   A(17,18,20)           111.2792         estimate D2E/DX2                !
 ! A36   A(19,18,20)           119.6886         estimate D2E/DX2                !
 ! A37   A(18,20,21)           117.6457         estimate D2E/DX2                !
 ! A38   A(18,20,22)           124.9305         estimate D2E/DX2                !
 ! A39   A(21,20,22)           117.4218         estimate D2E/DX2                !
 ! A40   A(20,22,23)           115.2339         estimate D2E/DX2                !
 ! A41   A(20,22,26)           123.6913         estimate D2E/DX2                !
 ! A42   A(23,22,26)           121.0726         estimate D2E/DX2                !
 ! A43   A(22,23,24)           127.0219         estimate D2E/DX2                !
 ! A44   A(22,23,25)           116.5189         estimate D2E/DX2                !
 ! A45   A(24,23,25)           116.4455         estimate D2E/DX2                !
 ! A46   A(22,26,27)           111.8265         estimate D2E/DX2                !
 ! A47   A(13,27,17)           106.5933         estimate D2E/DX2                !
 ! A48   A(13,27,26)           124.5522         estimate D2E/DX2                !
 ! A49   A(17,27,26)           128.8542         estimate D2E/DX2                !
 ! A50   A(8,28,29)            134.8407         estimate D2E/DX2                !
 ! A51   A(8,28,30)            102.1093         estimate D2E/DX2                !
 ! A52   A(8,28,33)            111.9403         estimate D2E/DX2                !
 ! A53   A(29,28,30)           109.4699         estimate D2E/DX2                !
 ! A54   A(29,28,33)            84.2238         estimate D2E/DX2                !
 ! A55   A(30,28,33)           113.4725         estimate D2E/DX2                !
 ! A56   A(11,30,28)           101.8352         estimate D2E/DX2                !
 ! A57   A(11,30,31)           126.6767         estimate D2E/DX2                !
 ! A58   A(11,30,32)           106.8387         estimate D2E/DX2                !
 ! A59   A(28,30,31)           100.3312         estimate D2E/DX2                !
 ! A60   A(28,30,32)           110.6717         estimate D2E/DX2                !
 ! A61   A(31,30,32)           109.4669         estimate D2E/DX2                !
 ! A62   A(28,33,34)           114.9756         estimate D2E/DX2                !
 ! D1    D(2,1,3,4)            122.3174         estimate D2E/DX2                !
 ! D2    D(2,1,4,5)             75.0454         estimate D2E/DX2                !
 ! D3    D(3,1,4,5)           -156.1412         estimate D2E/DX2                !
 ! D4    D(1,4,5,6)             59.7064         estimate D2E/DX2                !
 ! D5    D(1,4,5,7)            -60.3836         estimate D2E/DX2                !
 ! D6    D(1,4,5,8)           -179.985          estimate D2E/DX2                !
 ! D7    D(4,5,8,9)            177.2463         estimate D2E/DX2                !
 ! D8    D(4,5,8,10)           -69.1265         estimate D2E/DX2                !
 ! D9    D(4,5,8,28)            47.4271         estimate D2E/DX2                !
 ! D10   D(6,5,8,9)            -61.9197         estimate D2E/DX2                !
 ! D11   D(6,5,8,10)            51.7075         estimate D2E/DX2                !
 ! D12   D(6,5,8,28)           168.2612         estimate D2E/DX2                !
 ! D13   D(7,5,8,9)             57.7213         estimate D2E/DX2                !
 ! D14   D(7,5,8,10)           171.3485         estimate D2E/DX2                !
 ! D15   D(7,5,8,28)           -72.0979         estimate D2E/DX2                !
 ! D16   D(5,8,10,11)          144.4723         estimate D2E/DX2                !
 ! D17   D(9,8,10,11)          -98.1484         estimate D2E/DX2                !
 ! D18   D(28,8,10,11)          20.7221         estimate D2E/DX2                !
 ! D19   D(5,8,28,29)          -20.8831         estimate D2E/DX2                !
 ! D20   D(5,8,28,30)         -154.8408         estimate D2E/DX2                !
 ! D21   D(5,8,28,33)           83.4502         estimate D2E/DX2                !
 ! D22   D(9,8,28,29)         -149.333          estimate D2E/DX2                !
 ! D23   D(9,8,28,30)           76.7094         estimate D2E/DX2                !
 ! D24   D(9,8,28,33)          -44.9997         estimate D2E/DX2                !
 ! D25   D(10,8,28,29)          97.7776         estimate D2E/DX2                !
 ! D26   D(10,8,28,30)         -36.1801         estimate D2E/DX2                !
 ! D27   D(10,8,28,33)        -157.8891         estimate D2E/DX2                !
 ! D28   D(8,10,11,12)         127.6932         estimate D2E/DX2                !
 ! D29   D(8,10,11,13)        -119.6048         estimate D2E/DX2                !
 ! D30   D(8,10,11,30)           3.3831         estimate D2E/DX2                !
 ! D31   D(10,11,13,14)         13.6953         estimate D2E/DX2                !
 ! D32   D(10,11,13,27)       -165.8059         estimate D2E/DX2                !
 ! D33   D(12,11,13,14)        130.4595         estimate D2E/DX2                !
 ! D34   D(12,11,13,27)        -49.0417         estimate D2E/DX2                !
 ! D35   D(30,11,13,14)       -105.0262         estimate D2E/DX2                !
 ! D36   D(30,11,13,27)         75.4726         estimate D2E/DX2                !
 ! D37   D(10,11,30,28)        -25.816          estimate D2E/DX2                !
 ! D38   D(10,11,30,31)       -138.4304         estimate D2E/DX2                !
 ! D39   D(10,11,30,32)         90.3044         estimate D2E/DX2                !
 ! D40   D(12,11,30,28)       -147.4945         estimate D2E/DX2                !
 ! D41   D(12,11,30,31)         99.8911         estimate D2E/DX2                !
 ! D42   D(12,11,30,32)        -31.3741         estimate D2E/DX2                !
 ! D43   D(13,11,30,28)         93.8037         estimate D2E/DX2                !
 ! D44   D(13,11,30,31)        -18.8107         estimate D2E/DX2                !
 ! D45   D(13,11,30,32)       -150.0759         estimate D2E/DX2                !
 ! D46   D(11,13,14,15)          0.2104         estimate D2E/DX2                !
 ! D47   D(11,13,14,16)       -179.7086         estimate D2E/DX2                !
 ! D48   D(27,13,14,15)        179.7921         estimate D2E/DX2                !
 ! D49   D(27,13,14,16)         -0.1269         estimate D2E/DX2                !
 ! D50   D(11,13,27,17)        179.6841         estimate D2E/DX2                !
 ! D51   D(11,13,27,26)         -0.486          estimate D2E/DX2                !
 ! D52   D(14,13,27,17)          0.0832         estimate D2E/DX2                !
 ! D53   D(14,13,27,26)        179.9131         estimate D2E/DX2                !
 ! D54   D(13,14,16,17)          0.1116         estimate D2E/DX2                !
 ! D55   D(15,14,16,17)       -179.8015         estimate D2E/DX2                !
 ! D56   D(14,16,17,18)       -179.6441         estimate D2E/DX2                !
 ! D57   D(14,16,17,27)         -0.0529         estimate D2E/DX2                !
 ! D58   D(16,17,18,19)         -0.7534         estimate D2E/DX2                !
 ! D59   D(16,17,18,20)        179.778          estimate D2E/DX2                !
 ! D60   D(27,17,18,19)        179.6859         estimate D2E/DX2                !
 ! D61   D(27,17,18,20)          0.2173         estimate D2E/DX2                !
 ! D62   D(16,17,27,13)         -0.0213         estimate D2E/DX2                !
 ! D63   D(16,17,27,26)       -179.8414         estimate D2E/DX2                !
 ! D64   D(18,17,27,13)        179.619          estimate D2E/DX2                !
 ! D65   D(18,17,27,26)         -0.2011         estimate D2E/DX2                !
 ! D66   D(17,18,20,21)       -179.3751         estimate D2E/DX2                !
 ! D67   D(17,18,20,22)          0.0941         estimate D2E/DX2                !
 ! D68   D(19,18,20,21)          1.1            estimate D2E/DX2                !
 ! D69   D(19,18,20,22)       -179.4308         estimate D2E/DX2                !
 ! D70   D(18,20,22,23)       -179.9702         estimate D2E/DX2                !
 ! D71   D(18,20,22,26)         -0.4943         estimate D2E/DX2                !
 ! D72   D(21,20,22,23)         -0.4998         estimate D2E/DX2                !
 ! D73   D(21,20,22,26)        178.976          estimate D2E/DX2                !
 ! D74   D(20,22,23,24)         -0.8533         estimate D2E/DX2                !
 ! D75   D(20,22,23,25)       -179.4503         estimate D2E/DX2                !
 ! D76   D(26,22,23,24)        179.6559         estimate D2E/DX2                !
 ! D77   D(26,22,23,25)          1.0589         estimate D2E/DX2                !
 ! D78   D(20,22,26,27)          0.4868         estimate D2E/DX2                !
 ! D79   D(23,22,26,27)        179.9333         estimate D2E/DX2                !
 ! D80   D(22,26,27,13)       -179.9508         estimate D2E/DX2                !
 ! D81   D(22,26,27,17)         -0.1601         estimate D2E/DX2                !
 ! D82   D(8,28,30,11)          37.2647         estimate D2E/DX2                !
 ! D83   D(8,28,30,31)         168.4525         estimate D2E/DX2                !
 ! D84   D(8,28,30,32)         -76.0263         estimate D2E/DX2                !
 ! D85   D(29,28,30,11)       -109.9574         estimate D2E/DX2                !
 ! D86   D(29,28,30,31)         21.2305         estimate D2E/DX2                !
 ! D87   D(29,28,30,32)        136.7516         estimate D2E/DX2                !
 ! D88   D(33,28,30,11)        157.9142         estimate D2E/DX2                !
 ! D89   D(33,28,30,31)        -70.898          estimate D2E/DX2                !
 ! D90   D(33,28,30,32)         44.6232         estimate D2E/DX2                !
 ! D91   D(8,28,33,34)         179.988          estimate D2E/DX2                !
 ! D92   D(29,28,33,34)        -43.6821         estimate D2E/DX2                !
 ! D93   D(30,28,33,34)         65.06           estimate D2E/DX2                !
 --------------------------------------------------------------------------------
 Trust Radius=3.00D-01 FncErr=1.00D-07 GrdErr=1.00D-06
 Number of steps in this run=    201 maximum allowed number of steps=    204.
 GradGradGradGradGradGradGradGradGradGradGradGradGradGradGradGradGradGrad

 Leave Link  103 at Tue Jul 21 23:24:41 2015, MaxMem=    33554432 cpu:         0.0
 (Enter /home/case/qchem/g09revD01/g09/l202.exe)
                          Input orientation:                          
 ---------------------------------------------------------------------
 Center     Atomic      Atomic             Coordinates (Angstroms)
 Number     Number       Type             X           Y           Z
 ---------------------------------------------------------------------
      1         15           0        2.894000   -8.196000    3.748000
      2          8           0        2.963000   -8.604000    5.168000
      3          8           0        1.681000   -7.470000    3.309000
      4          8           0        4.232000   -7.360000    3.480000
      5          6           0        5.480000   -8.064000    3.350000
      6          1           0        5.429000   -8.766000    2.518000
      7          1           0        5.679000   -8.609000    4.273000
      8          6           0        6.614000   -7.068000    3.100000
      9          1           0        7.569000   -7.590000    3.049000
     10          8           0        6.436000   -6.504000    1.770000
     11          6           0        6.837000   -5.134000    1.770000
     12          1           0        7.552000   -4.957000    0.967000
     13          7           0        5.671000   -4.305000    1.390000
     14          6           0        4.338000   -4.651000    1.320000
     15          1           0        4.030000   -5.656000    1.568000
     16          7           0        3.550000   -3.676000    0.940000
     17          6           0        4.420000   -2.604000    0.740000
     18          6           0        4.148000   -1.276000    0.330000
     19          8           0        3.067000   -0.759000    0.040000
     20          7           0        5.325000   -0.513000    0.260000
     21          1           0        5.241000    0.446000   -0.012000
     22          6           0        6.597000   -0.986000    0.550000
     23          7           0        7.579000   -0.093000    0.420000
     24          1           0        7.491000    0.869000    0.126000
     25          1           0        8.514000   -0.419000    0.618000
     26          7           0        6.848000   -2.225000    0.940000
     27          6           0        5.712000   -2.974000    1.010000
     28          6           0        6.646000   -5.859000    4.020000
     29          1           0        5.915000   -5.354000    4.651000
     30          6           0        7.380000   -4.830000    3.170000
     31          1           0        7.201000   -3.929000    3.756000
     32          9           0        8.772000   -5.106000    3.140000
     33          8           0        7.297000   -6.145000    5.250000
     34          1           0        7.342000   -5.410000    5.865000
 ---------------------------------------------------------------------
                    Distance matrix (angstroms):
                    1          2          3          4          5
     1  P    0.000000
     2  O    1.479062   0.000000
     3  O    1.480259   2.526927   0.000000
     4  O    1.600301   2.450967   2.559090   0.000000
     5  C    2.619776   3.151510   3.845376   1.438756   0.000000
     6  H    2.874722   3.623520   4.043860   2.082088   1.089784
     7  H    2.863987   2.859669   4.267390   2.069459   1.090209
     8  C    3.940899   4.468302   4.953764   2.429730   1.529860
     9  H    4.765654   5.170454   5.894959   3.372570   2.163145
    10  O    4.395579   5.293216   5.090354   2.917953   2.417423
    11  C    5.369877   6.212502   5.865983   3.829517   3.594823
    12  H    6.318390   7.211652   6.802115   4.807492   4.430048
    13  N    5.330270   6.331504   5.442415   3.971378   4.243602
    14  C    4.532918   5.685414   4.354599   3.466341   4.132025
    15  H    3.534755   4.773803   3.440854   2.569078   3.328136
    16  N    5.361492   6.519642   4.847655   4.526431   5.365403
    17  C    6.530483   7.598028   6.146531   5.492038   6.143883
    18  C    7.819312   8.860590   7.302477   6.851614   7.547951
    19  O    8.311929   9.372898   7.592422   7.534190   8.375064
    20  N    8.780911   9.753553   8.424665   7.644898   8.160253
    21  H    9.712372  10.673527   9.293315   8.610794   9.153156
    22  C    8.713410   9.621112   8.591938   7.403108   7.693229
    23  N    9.933953  10.783695   9.876885   8.565938   8.748002
    24  H   10.790066  11.647415  10.650188   9.465032   9.707563
    25  H   10.092722  10.886245  10.180765   8.643150   8.666891
    26  N    7.692322   8.582590   7.734344   6.297879   6.463238
    27  C    6.535063   7.519499   6.461298   5.246741   5.606918
    28  C    4.428663   4.734704   5.268023   2.893440   2.582727
    29  H    4.244857   4.420870   4.919876   2.868408   3.037421
    30  C    5.638106   6.143693   6.282318   4.050544   3.755151
    31  H    6.062805   6.466066   6.573347   4.545646   4.497210
    32  F    6.668482   7.077660   7.476586   5.080130   4.430703
    33  O    5.084193   4.983669   6.087903   3.742105   3.254850
    34  H    5.659345   5.464713   6.543979   4.377536   4.103168
                    6          7          8          9         10
     6  H    0.000000
     7  H    1.779656   0.000000
     8  C    2.150849   2.150543   0.000000
     9  H    2.498907   2.471566   1.089546   0.000000
    10  O    2.586542   3.356945   1.455569   2.024580   0.000000
    11  C    3.966534   4.436395   2.357750   2.864193   1.427481
    12  H    4.628305   5.270187   3.144178   3.356740   2.069656
    13  N    4.607762   5.180364   3.383418   4.140762   2.359073
    14  C    4.422523   5.117055   3.767023   4.697502   2.835086
    15  H    3.540028   4.330870   3.319311   4.296305   2.559051
    16  N    5.650560   6.322659   5.055627   5.993299   4.124982
    17  C    6.492273   7.080056   5.505500   6.333078   4.509452
    18  C    7.907490   8.465465   6.877596   7.678724   5.885620
    19  O    8.708133   9.293187   7.858008   8.716917   6.880995
    20  N    8.556950   9.042937   7.259142   7.930825   6.277460
    21  H    9.554956  10.027268   8.248022   8.908793   7.273654
    22  C    8.109602   8.533087   6.594961   7.127594   5.653552
    23  N    9.178509   9.538232   7.534205   7.944605   6.650554
    24  H   10.139366  10.503020   8.521137   8.950123   7.627378
    25  H    9.099430   9.405974   7.347076   7.630598   6.532412
    26  N    6.876651   7.295951   5.308013   5.809557   4.378183
    27  C    5.991779   6.511642   4.684286   5.377121   3.682754
    28  C    3.491095   2.926021   1.519574   2.188865   2.350027
    29  H    4.053101   3.285362   2.414953   3.209644   3.145489
    30  C    4.441126   4.288456   2.366495   2.769109   2.377690
    31  H    5.298037   4.948351   3.260096   3.746758   3.340666
    32  F    4.995812   4.808466   2.916849   2.761475   3.047655
    33  O    4.221716   3.105439   2.437400   2.646962   3.602860
    34  H    5.111234   3.941273   3.305174   3.568443   4.334362
                   11         12         13         14         15
    11  C    0.000000
    12  H    1.089662   0.000000
    13  N    1.480269   2.035238   0.000000
    14  C    2.584722   3.247775   1.378951   0.000000
    15  H    2.862261   3.640644   2.133018   1.079997   0.000000
    16  N    3.690397   4.202106   2.257605   1.309950   2.131944
    17  C    3.647422   3.923973   2.209276   2.129163   3.186281
    18  C    4.918179   5.053983   3.552178   3.522332   4.553127
    19  O    6.028800   6.212709   4.601894   4.289698   5.219460
    20  N    5.091158   5.020808   3.971886   4.384155   5.462448
    21  H    6.071173   5.957480   4.972173   5.345002   6.418514
    22  C    4.330347   4.105454   3.546666   4.373580   5.425377
    23  N    5.271124   4.894735   4.724649   5.664755   6.697781
    24  H    6.258311   5.886703   5.628532   6.468187   7.525524
    25  H    5.135237   4.651955   4.876436   5.986786   6.959520
    26  N    3.025112   2.821377   2.431919   3.511407   4.484113
    27  C    2.551240   2.705501   1.384790   2.190047   3.214594
    28  C    2.371625   3.309871   3.206625   3.751817   3.591235
    29  H    3.032927   4.050831   3.434248   3.751893   3.626199
    30  C    1.532079   2.213351   2.522837   3.564871   3.804100
    31  H    2.351322   2.993076   2.842575   3.827813   4.221980
    32  F    2.371057   2.496504   3.649699   4.814539   5.025957
    33  O    3.652961   4.452017   4.574831   5.141266   4.946669
    34  H    4.135242   4.923384   4.902947   5.500647   5.430844
                   16         17         18         19         20
    16  N    0.000000
    17  C    1.395021   0.000000
    18  C    2.547490   1.416216   0.000000
    19  O    3.090660   2.392621   1.232863   0.000000
    20  N    3.690202   2.328456   1.404421   2.281990   0.000000
    21  H    4.555949   3.246852   2.068066   2.486163   1.000360
    22  C    4.083186   2.719072   2.475904   3.573868   1.387737
    23  N    5.416745   4.048062   3.630337   4.576691   2.298372
    24  H    6.070511   4.676512   3.977221   4.714823   2.572826
    25  H    5.945841   4.642192   4.458626   5.488123   3.210408
    26  N    3.603083   2.465527   2.926209   4.153928   2.390162
    27  C    2.274192   1.370790   2.406595   3.583734   2.601690
    28  C    4.882326   5.129181   6.392182   7.393216   6.668010
    29  H    4.709610   5.009336   6.198662   7.105382   6.562337
    30  C    4.579685   4.429625   5.580532   6.706110   5.597108
    31  H    4.617756   4.311130   5.300631   6.399024   5.235499
    32  F    5.844158   5.564163   6.629206   7.813670   6.424318
    33  O    6.221902   6.415287   7.604588   8.604998   7.778709
    34  H    6.453034   6.532790   7.611033   8.592907   7.711350
                   21         22         23         24         25
    21  H    0.000000
    22  C    2.050659   0.000000
    23  N    2.437907   1.333669   0.000000
    24  H    2.293572   2.102388   1.009764   0.000000
    25  H    3.443494   2.000250   1.009804   1.716839   0.000000
    26  N    3.259293   1.322960   2.313047   3.263262   2.478079
    27  C    3.600378   2.224178   3.483382   4.326077   3.812203
    28  C    7.614727   5.982427   6.861286   7.819415   6.682561
    29  H    7.472472   6.030153   6.953300   7.853988   6.882886
    30  C    6.522011   4.717396   5.480992   6.461955   5.220688
    31  H    6.097545   4.393689   5.097713   6.023438   4.887854
    32  F    7.295736   5.330396   5.826819   6.813647   5.328697
    33  O    8.680844   7.013935   7.748234   8.688453   7.464823
    34  H    8.558392   6.955288   7.614111   8.507888   7.335849
                   26         27         28         29         30
    26  N    0.000000
    27  C    1.362497   0.000000
    28  C    4.767930   4.272667   0.000000
    29  H    4.942940   4.354594   1.089746   0.000000
    30  C    3.470151   3.300388   1.523186   2.148060   0.000000
    31  H    3.310299   3.266445   2.025493   2.117887   1.089605
    32  F    4.103893   4.294872   2.421009   3.241462   1.419415
    33  O    5.843295   5.526759   1.420738   1.701295   2.462217
    34  H    5.885906   5.671157   2.022385   1.874369   2.756967
                   31         32         33         34
    31  H    0.000000
    32  F    2.057383   0.000000
    33  O    2.674305   2.776193   0.000000
    34  H    2.580915   3.092401   0.959414   0.000000
 Stoichiometry    C10H11FN5O6P
 Framework group  C1[X(C10H11FN5O6P)]
 Deg. of freedom    96
 Full point group                 C1      NOp   1
 Largest Abelian subgroup         C1      NOp   1
 Largest concise Abelian subgroup C1      NOp   1
                         Standard orientation:                         
 ---------------------------------------------------------------------
 Center     Atomic      Atomic             Coordinates (Angstroms)
 Number     Number       Type             X           Y           Z
 ---------------------------------------------------------------------
      1         15           0        4.129985   -1.674382   -0.000798
      2          8           0        5.117621   -1.207754    0.996427
      3          8           0        3.547635   -3.020423    0.199724
      4          8           0        3.011256   -0.531553   -0.058664
      5          6           0        3.307648    0.700742   -0.739561
      6          1           0        3.546180    0.503212   -1.784412
      7          1           0        4.160575    1.177998   -0.256552
      8          6           0        2.100078    1.637200   -0.666820
      9          1           0        2.334539    2.591044   -1.138329
     10          8           0        1.040603    1.074401   -1.491108
     11          6           0       -0.227571    1.335073   -0.889872
     12          1           0       -0.893002    1.801821   -1.615621
     13          7           0       -0.881759    0.039929   -0.596895
     14          6           0       -0.342754   -1.229277   -0.587170
     15          1           0        0.703591   -1.370435   -0.814392
     16          7           0       -1.200323   -2.173964   -0.290335
     17          6           0       -2.397160   -1.485765   -0.090219
     18          6           0       -3.679177   -1.973769    0.261848
     19          8           0       -4.039350   -3.135575    0.462932
     20          7           0       -4.611517   -0.928617    0.365760
     21          1           0       -5.549199   -1.166670    0.620328
     22          6           0       -4.328326    0.412994    0.151995
     23          7           0       -5.360966    1.243246    0.303683
     24          1           0       -6.310476    0.995447    0.541696
     25          1           0       -5.178509    2.223555    0.144283
     26          7           0       -3.128249    0.867538   -0.169608
     27          6           0       -2.216379   -0.139434   -0.274003
     28          6           0        1.466475    1.792574    0.705591
     29          1           0        1.465952    1.204107    1.622790
     30          6           0        0.037798    2.187689    0.355073
     31          1           0       -0.438591    2.082787    1.329387
     32          9           0       -0.020153    3.544999   -0.056136
     33          8           0        2.143253    2.759638    1.496323
     34          1           0        1.778289    2.892916    2.373542
 ---------------------------------------------------------------------
 Rotational constants (GHZ):      0.3754092      0.1429087      0.1105200
 Leave Link  202 at Tue Jul 21 23:24:41 2015, MaxMem=    33554432 cpu:         0.0
 (Enter /home/case/qchem/g09revD01/g09/l301.exe)
 Standard basis: 6-31G(d) (6D, 7F)
 Ernie: Thresh=  0.10000D-02 Tol=  0.10000D-05 Strict=F.
 There are   371 symmetry adapted cartesian basis functions of A   symmetry.
 There are   371 symmetry adapted basis functions of A   symmetry.
   371 basis functions,   712 primitive gaussians,   371 cartesian basis functions
    89 alpha electrons       89 beta electrons
       nuclear repulsion energy      2185.4352266387 Hartrees.
 IExCor=  402 DFT=T Ex+Corr=B3LYP ExCW=0 ScaHFX=  0.200000
 ScaDFX=  0.800000  0.720000  1.000000  0.810000 ScalE2=  1.000000  1.000000
 IRadAn=      0 IRanWt=     -1 IRanGd=            0 ICorTp=0 IEmpDi=  4
 NAtoms=   34 NActive=   34 NUniq=   34 SFac= 1.00D+00 NAtFMM=   60 NAOKFM=F Big=F
 Integral buffers will be    131072 words long.
 Raffenetti 2 integral format.
 Two-electron integral symmetry is turned on.
 Leave Link  301 at Tue Jul 21 23:24:41 2015, MaxMem=    33554432 cpu:         0.1
 (Enter /home/case/qchem/g09revD01/g09/l302.exe)
 NPDir=0 NMtPBC=     1 NCelOv=     1 NCel=       1 NClECP=     1 NCelD=      1
         NCelK=      1 NCelE2=     1 NClLst=     1 CellRange=     0.0.
 One-electron integrals computed using PRISM.
 NBasis=   371 RedAO= T EigKep=  7.37D-04  NBF=   371
 NBsUse=   371 1.00D-06 EigRej= -1.00D+00 NBFU=   371
 Precomputing XC quadrature grid using
 IXCGrd= 4 IRadAn=           0 IRanWt=          -1 IRanGd=           0 AccXCQ= 0.00D+00.
 Generated NRdTot=       0 NPtTot=           0 NUsed=           0 NTot=          32
 NSgBfM=   366   366   366   366   366 MxSgAt=    34 MxSgA2=    34.
 Leave Link  302 at Tue Jul 21 23:24:43 2015, MaxMem=    33554432 cpu:         2.0
 (Enter /home/case/qchem/g09revD01/g09/l303.exe)
 DipDrv:  MaxL=1.
 Leave Link  303 at Tue Jul 21 23:24:43 2015, MaxMem=    33554432 cpu:         0.1
 (Enter /home/case/qchem/g09revD01/g09/l401.exe)
 ExpMin= 9.98D-02 ExpMax= 1.94D+04 ExpMxC= 2.91D+03 IAcc=2 IRadAn=         4 AccDes= 0.00D+00
 Harris functional with IExCor=  402 and IRadAn=       4 diagonalized for initial guess.
 HarFok:  IExCor=  402 AccDes= 0.00D+00 IRadAn=         4 IDoV= 1 UseB2=F ITyADJ=14
 ICtDFT=  3500011 ScaDFX=  1.000000  1.000000  1.000000  1.000000
 FoFCou: FMM=F IPFlag=           0 FMFlag=      100000 FMFlg1=           0
         NFxFlg=           0 DoJE=T BraDBF=F KetDBF=T FulRan=T
         wScrn=  0.000000 ICntrl=     500 IOpCl=  0 I1Cent=   200000004 NGrid=           0
         NMat0=    1 NMatS0=      1 NMatT0=    0 NMatD0=    1 NMtDS0=    0 NMtDT0=    0
 Petite list used in FoFCou.
 Harris En= -1553.89453136150    
 JPrj=0 DoOrth=F DoCkMO=F.
 Leave Link  401 at Tue Jul 21 23:24:58 2015, MaxMem=    33554432 cpu:        14.7
 (Enter /home/case/qchem/g09revD01/g09/l502.exe)
 Closed shell SCF:
 Using DIIS extrapolation, IDIIS=  1040.
 Integral symmetry usage will be decided dynamically.
 IVT=      436479 IEndB=      436479 NGot=    33554432 MDV=    33272606
 LenX=    33272606 LenY=    33134524
 Requested convergence on RMS density matrix=1.00D-08 within 128 cycles.
 Requested convergence on MAX density matrix=1.00D-06.
 Requested convergence on             energy=1.00D-06.
 No special actions if energy rises.
 Fock matrices will be formed incrementally for  20 cycles.
 Integral accuracy reduced to 1.0D-05 until final iterations.

 Cycle   1  Pass 0  IDiag  1:
 FoFJK:  IHMeth= 1 ICntrl=       0 DoSepK=F KAlg= 0 I1Cent=   0 FoldK=F
 IRaf= 710000000 NMat=   1 IRICut=       1 DoRegI=T DoRafI=F ISym2E= 0.
 FoFCou: FMM=F IPFlag=           0 FMFlag=      100000 FMFlg1=           0
         NFxFlg=           0 DoJE=F BraDBF=F KetDBF=F FulRan=T
         wScrn=  0.000000 ICntrl=       0 IOpCl=  0 I1Cent=           0 NGrid=           0
         NMat0=    1 NMatS0=      1 NMatT0=    0 NMatD0=    1 NMtDS0=    0 NMtDT0=    0
 Symmetry not used in FoFCou.
 E= -1553.18770653180    
 DIIS: error= 3.12D-02 at cycle   1 NSaved=   1.
 NSaved= 1 IEnMin= 1 EnMin= -1553.18770653180     IErMin= 1 ErrMin= 3.12D-02
 ErrMax= 3.12D-02  0.00D+00 EMaxC= 1.00D-01 BMatC= 8.36D-01 BMatP= 8.36D-01
 IDIUse=3 WtCom= 6.88D-01 WtEn= 3.12D-01
 Coeff-Com:  0.100D+01
 Coeff-En:   0.100D+01
 Coeff:      0.100D+01
 Gap=    -0.116 Goal=   None    Shift=    0.000
 GapD=   -0.116 DampG=0.250 DampE=0.500 DampFc=0.2500 IDamp=-1.
 Damping current iteration by 2.50D-01
 RMSDP=8.16D-03 MaxDP=6.86D-01              OVMax= 7.39D-01

 Cycle   2  Pass 0  IDiag  1:
 RMSU=  2.03D-03    CP:  9.93D-01
 E= -1553.34178797123     Delta-E=       -0.154081439431 Rises=F Damp=T
 DIIS: error= 1.10D-02 at cycle   2 NSaved=   2.
 NSaved= 2 IEnMin= 2 EnMin= -1553.34178797123     IErMin= 2 ErrMin= 1.10D-02
 ErrMax= 1.10D-02  0.00D+00 EMaxC= 1.00D-01 BMatC= 1.45D-01 BMatP= 8.36D-01
 IDIUse=3 WtCom= 8.90D-01 WtEn= 1.10D-01
 Coeff-Com: -0.257D+00 0.126D+01
 Coeff-En:   0.287D+00 0.713D+00
 Coeff:     -0.197D+00 0.120D+01
 Gap=    -0.135 Goal=   None    Shift=    0.000
 RMSDP=2.83D-03 MaxDP=1.53D-01 DE=-1.54D-01 OVMax= 3.89D-01

 Cycle   3  Pass 0  IDiag  1:
 RMSU=  2.77D-03    CP:  9.83D-01  7.29D-01
 E= -1553.41637948592     Delta-E=       -0.074591514695 Rises=F Damp=F
 DIIS: error= 2.87D-02 at cycle   3 NSaved=   3.
 NSaved= 3 IEnMin= 3 EnMin= -1553.41637948592     IErMin= 2 ErrMin= 1.10D-02
 ErrMax= 2.87D-02  0.00D+00 EMaxC= 1.00D-01 BMatC= 4.84D-01 BMatP= 1.45D-01
 IDIUse=2 WtCom= 0.00D+00 WtEn= 1.00D+00
 EnCoef did     4 forward-backward iterations
 Coeff-En:   0.244D-01 0.428D+00 0.548D+00
 Coeff:      0.244D-01 0.428D+00 0.548D+00
 Gap=     0.299 Goal=   None    Shift=    0.000
 RMSDP=5.54D-03 MaxDP=5.26D-01 DE=-7.46D-02 OVMax= 9.97D-01

 Cycle   4  Pass 0  IDiag  1:
 RMSU=  2.62D-03    CP:  9.77D-01  2.35D+00 -3.05D-01
 E= -1551.28807876456     Delta-E=        2.128300721362 Rises=F Damp=F
 DIIS: error= 5.72D-02 at cycle   4 NSaved=   4.
 NSaved= 4 IEnMin= 3 EnMin= -1553.41637948592     IErMin= 2 ErrMin= 1.10D-02
 ErrMax= 5.72D-02  0.00D+00 EMaxC= 1.00D-01 BMatC= 1.41D+00 BMatP= 1.45D-01
 IDIUse=2 WtCom= 0.00D+00 WtEn= 1.00D+00
 EnCoef did     1 forward-backward iterations
 Coeff-En:   0.114D+00 0.000D+00 0.666D+00 0.221D+00
 Coeff:      0.114D+00 0.000D+00 0.666D+00 0.221D+00
 Gap=     0.035 Goal=   None    Shift=    0.000
 RMSDP=4.91D-03 MaxDP=5.34D-01 DE= 2.13D+00 OVMax= 9.97D-01

 Cycle   5  Pass 0  IDiag  1:
 RMSU=  2.10D-03    CP:  9.90D-01  7.26D-01  3.11D-01  8.00D-02
 E= -1553.80937633065     Delta-E=       -2.521297566092 Rises=F Damp=F
 DIIS: error= 8.86D-03 at cycle   5 NSaved=   5.
 NSaved= 5 IEnMin= 5 EnMin= -1553.80937633065     IErMin= 5 ErrMin= 8.86D-03
 ErrMax= 8.86D-03  0.00D+00 EMaxC= 1.00D-01 BMatC= 8.61D-02 BMatP= 1.45D-01
 IDIUse=3 WtCom= 9.11D-01 WtEn= 8.86D-02
 Coeff-Com: -0.950D-01 0.372D+00 0.283D+00 0.154D-01 0.426D+00
 Coeff-En:   0.000D+00 0.000D+00 0.138D+00 0.000D+00 0.862D+00
 Coeff:     -0.866D-01 0.339D+00 0.270D+00 0.140D-01 0.464D+00
 Gap=     0.114 Goal=   None    Shift=    0.000
 RMSDP=1.28D-03 MaxDP=6.22D-02 DE=-2.52D+00 OVMax= 1.37D-01

 Cycle   6  Pass 0  IDiag  1:
 RMSU=  7.50D-04    CP:  9.87D-01  6.93D-01  5.02D-01  1.59D-02  5.84D-01
 E= -1553.86449935320     Delta-E=       -0.055123022552 Rises=F Damp=F
 DIIS: error= 6.33D-03 at cycle   6 NSaved=   6.
 NSaved= 6 IEnMin= 6 EnMin= -1553.86449935320     IErMin= 6 ErrMin= 6.33D-03
 ErrMax= 6.33D-03  0.00D+00 EMaxC= 1.00D-01 BMatC= 2.56D-02 BMatP= 8.61D-02
 IDIUse=3 WtCom= 9.37D-01 WtEn= 6.33D-02
 Coeff-Com: -0.970D-01 0.196D+00 0.557D-01-0.753D-02 0.293D+00 0.560D+00
 Coeff-En:   0.000D+00 0.000D+00 0.000D+00 0.000D+00 0.252D+00 0.748D+00
 Coeff:     -0.909D-01 0.184D+00 0.522D-01-0.705D-02 0.290D+00 0.572D+00
 Gap=     0.040 Goal=   None    Shift=    0.000
 RMSDP=4.87D-04 MaxDP=2.12D-02 DE=-5.51D-02 OVMax= 5.29D-02

 Cycle   7  Pass 0  IDiag  1:
 RMSU=  3.09D-04    CP:  9.88D-01  7.45D-01  4.40D-01  1.35D-02  7.17D-01
                    CP:  7.99D-01
 E= -1553.88547269216     Delta-E=       -0.020973338957 Rises=F Damp=F
 DIIS: error= 2.34D-03 at cycle   7 NSaved=   7.
 NSaved= 7 IEnMin= 7 EnMin= -1553.88547269216     IErMin= 7 ErrMin= 2.34D-03
 ErrMax= 2.34D-03  0.00D+00 EMaxC= 1.00D-01 BMatC= 3.29D-03 BMatP= 2.56D-02
 IDIUse=3 WtCom= 9.77D-01 WtEn= 2.34D-02
 Coeff-Com: -0.504D-01 0.854D-01-0.181D-01-0.154D-02 0.100D+00 0.374D+00
 Coeff-Com:  0.510D+00
 Coeff-En:   0.000D+00 0.000D+00 0.000D+00 0.000D+00 0.000D+00 0.000D+00
 Coeff-En:   0.100D+01
 Coeff:     -0.492D-01 0.834D-01-0.177D-01-0.151D-02 0.981D-01 0.365D+00
 Coeff:      0.522D+00
 Gap=     0.044 Goal=   None    Shift=    0.000
 RMSDP=1.72D-04 MaxDP=1.06D-02 DE=-2.10D-02 OVMax= 1.71D-02

 Cycle   8  Pass 0  IDiag  1:
 RMSU=  1.13D-04    CP:  9.88D-01  7.31D-01  4.28D-01  1.69D-02  7.34D-01
                    CP:  8.72D-01  6.71D-01
 E= -1553.88783931137     Delta-E=       -0.002366619212 Rises=F Damp=F
 DIIS: error= 1.39D-03 at cycle   8 NSaved=   8.
 NSaved= 8 IEnMin= 8 EnMin= -1553.88783931137     IErMin= 8 ErrMin= 1.39D-03
 ErrMax= 1.39D-03  0.00D+00 EMaxC= 1.00D-01 BMatC= 6.29D-04 BMatP= 3.29D-03
 IDIUse=3 WtCom= 9.86D-01 WtEn= 1.39D-02
 Coeff-Com: -0.269D-01 0.414D-01-0.224D-01 0.824D-03 0.317D-01 0.191D+00
 Coeff-Com:  0.363D+00 0.420D+00
 Coeff-En:   0.000D+00 0.000D+00 0.000D+00 0.000D+00 0.000D+00 0.000D+00
 Coeff-En:   0.795D-01 0.920D+00
 Coeff:     -0.265D-01 0.409D-01-0.221D-01 0.813D-03 0.313D-01 0.189D+00
 Coeff:      0.359D+00 0.427D+00
 Gap=     0.040 Goal=   None    Shift=    0.000
 RMSDP=7.61D-05 MaxDP=5.94D-03 DE=-2.37D-03 OVMax= 1.31D-02

 Cycle   9  Pass 0  IDiag  1:
 RMSU=  5.41D-05    CP:  9.88D-01  7.33D-01  4.24D-01  1.56D-02  7.36D-01
                    CP:  8.96D-01  7.49D-01  6.26D-01
 E= -1553.88827177484     Delta-E=       -0.000432463472 Rises=F Damp=F
 DIIS: error= 7.54D-04 at cycle   9 NSaved=   9.
 NSaved= 9 IEnMin= 9 EnMin= -1553.88827177484     IErMin= 9 ErrMin= 7.54D-04
 ErrMax= 7.54D-04  0.00D+00 EMaxC= 1.00D-01 BMatC= 1.95D-04 BMatP= 6.29D-04
 IDIUse=3 WtCom= 9.92D-01 WtEn= 7.54D-03
 Coeff-Com: -0.952D-02 0.131D-01-0.152D-01 0.178D-02-0.937D-02 0.357D-01
 Coeff-Com:  0.122D+00 0.342D+00 0.520D+00
 Coeff-En:   0.000D+00 0.000D+00 0.000D+00 0.000D+00 0.000D+00 0.000D+00
 Coeff-En:   0.000D+00 0.174D+00 0.826D+00
 Coeff:     -0.945D-02 0.130D-01-0.151D-01 0.176D-02-0.930D-02 0.355D-01
 Coeff:      0.121D+00 0.341D+00 0.522D+00
 Gap=     0.037 Goal=   None    Shift=    0.000
 RMSDP=3.85D-05 MaxDP=2.50D-03 DE=-4.32D-04 OVMax= 5.07D-03

 Cycle  10  Pass 0  IDiag  1:
 RMSU=  2.48D-05    CP:  9.88D-01  7.36D-01  4.22D-01  1.50D-02  7.38D-01
                    CP:  9.14D-01  7.80D-01  7.56D-01  6.84D-01
 E= -1553.88841637465     Delta-E=       -0.000144599805 Rises=F Damp=F
 DIIS: error= 3.66D-04 at cycle  10 NSaved=  10.
 NSaved=10 IEnMin=10 EnMin= -1553.88841637465     IErMin=10 ErrMin= 3.66D-04
 ErrMax= 3.66D-04  0.00D+00 EMaxC= 1.00D-01 BMatC= 4.39D-05 BMatP= 1.95D-04
 IDIUse=3 WtCom= 9.96D-01 WtEn= 3.66D-03
 Coeff-Com: -0.408D-02 0.510D-02-0.769D-02 0.130D-02-0.976D-02-0.576D-02
 Coeff-Com:  0.791D-02 0.131D+00 0.331D+00 0.552D+00
 Coeff-En:   0.000D+00 0.000D+00 0.000D+00 0.000D+00 0.000D+00 0.000D+00
 Coeff-En:   0.000D+00 0.000D+00 0.000D+00 0.100D+01
 Coeff:     -0.406D-02 0.508D-02-0.766D-02 0.129D-02-0.972D-02-0.574D-02
 Coeff:      0.788D-02 0.130D+00 0.329D+00 0.553D+00
 Gap=     0.037 Goal=   None    Shift=    0.000
 RMSDP=1.75D-05 MaxDP=1.03D-03 DE=-1.45D-04 OVMax= 2.01D-03

 Cycle  11  Pass 0  IDiag  1:
 RMSU=  1.22D-05    CP:  9.88D-01  7.37D-01  4.20D-01  1.49D-02  7.41D-01
                    CP:  9.18D-01  7.89D-01  7.97D-01  8.15D-01  8.27D-01
 E= -1553.88844704557     Delta-E=       -0.000030670921 Rises=F Damp=F
 DIIS: error= 1.81D-04 at cycle  11 NSaved=  11.
 NSaved=11 IEnMin=11 EnMin= -1553.88844704557     IErMin=11 ErrMin= 1.81D-04
 ErrMax= 1.81D-04  0.00D+00 EMaxC= 1.00D-01 BMatC= 9.93D-06 BMatP= 4.39D-05
 IDIUse=3 WtCom= 9.98D-01 WtEn= 1.81D-03
 Coeff-Com: -0.145D-02 0.203D-02-0.681D-03 0.297D-03-0.935D-03-0.127D-01
 Coeff-Com: -0.404D-01-0.311D-01 0.425D-01 0.351D+00 0.692D+00
 Coeff-En:   0.000D+00 0.000D+00 0.000D+00 0.000D+00 0.000D+00 0.000D+00
 Coeff-En:   0.000D+00 0.000D+00 0.000D+00 0.000D+00 0.100D+01
 Coeff:     -0.145D-02 0.202D-02-0.679D-03 0.297D-03-0.933D-03-0.127D-01
 Coeff:     -0.403D-01-0.311D-01 0.424D-01 0.350D+00 0.692D+00
 Gap=     0.036 Goal=   None    Shift=    0.000
 RMSDP=1.22D-05 MaxDP=4.31D-04 DE=-3.07D-05 OVMax= 2.27D-03

 Cycle  12  Pass 0  IDiag  1:
 RMSU=  6.28D-06    CP:  9.88D-01  7.38D-01  4.19D-01  1.51D-02  7.43D-01
                    CP:  9.22D-01  7.92D-01  8.10D-01  8.71D-01  1.08D+00
                    CP:  9.27D-01
 E= -1553.88845800907     Delta-E=       -0.000010963498 Rises=F Damp=F
 DIIS: error= 4.53D-05 at cycle  12 NSaved=  12.
 NSaved=12 IEnMin=12 EnMin= -1553.88845800907     IErMin=12 ErrMin= 4.53D-05
 ErrMax= 4.53D-05  0.00D+00 EMaxC= 1.00D-01 BMatC= 9.65D-07 BMatP= 9.93D-06
 IDIUse=1 WtCom= 1.00D+00 WtEn= 0.00D+00
 Coeff-Com: -0.380D-03 0.498D-03 0.163D-03 0.468D-04 0.107D-02-0.486D-02
 Coeff-Com: -0.223D-01-0.334D-01-0.246D-01 0.100D+00 0.368D+00 0.615D+00
 Coeff:     -0.380D-03 0.498D-03 0.163D-03 0.468D-04 0.107D-02-0.486D-02
 Coeff:     -0.223D-01-0.334D-01-0.246D-01 0.100D+00 0.368D+00 0.615D+00
 Gap=     0.036 Goal=   None    Shift=    0.000
 RMSDP=4.74D-06 MaxDP=2.05D-04 DE=-1.10D-05 OVMax= 9.34D-04

 Initial convergence to 1.0D-05 achieved.  Increase integral accuracy.
 Cycle  13  Pass 1  IDiag  1:
 E= -1553.88842776067     Delta-E=        0.000030248400 Rises=F Damp=F
 DIIS: error= 5.43D-05 at cycle   1 NSaved=   1.
 NSaved= 1 IEnMin= 1 EnMin= -1553.88842776067     IErMin= 1 ErrMin= 5.43D-05
 ErrMax= 5.43D-05  0.00D+00 EMaxC= 1.00D-01 BMatC= 6.94D-07 BMatP= 6.94D-07
 IDIUse=1 WtCom= 1.00D+00 WtEn= 0.00D+00
 Coeff-Com:  0.100D+01
 Coeff:      0.100D+01
 Gap=     0.036 Goal=   None    Shift=    0.000
 RMSDP=4.74D-06 MaxDP=2.05D-04 DE= 3.02D-05 OVMax= 5.93D-04

 Cycle  14  Pass 1  IDiag  1:
 RMSU=  2.17D-05    CP:  1.00D+00
 E= -1553.88842833043     Delta-E=       -0.000000569759 Rises=F Damp=F
 DIIS: error= 1.13D-05 at cycle   2 NSaved=   2.
 NSaved= 2 IEnMin= 2 EnMin= -1553.88842833043     IErMin= 2 ErrMin= 1.13D-05
 ErrMax= 1.13D-05  0.00D+00 EMaxC= 1.00D-01 BMatC= 1.45D-07 BMatP= 6.94D-07
 IDIUse=1 WtCom= 1.00D+00 WtEn= 0.00D+00
 Coeff-Com:  0.215D+00 0.785D+00
 Coeff:      0.215D+00 0.785D+00
 Gap=     0.036 Goal=   None    Shift=    0.000
 RMSDP=2.70D-06 MaxDP=1.37D-04 DE=-5.70D-07 OVMax= 3.85D-04

 Cycle  15  Pass 1  IDiag  1:
 RMSU=  2.69D-06    CP:  1.00D+00  1.00D+00
 E= -1553.88842820148     Delta-E=        0.000000128951 Rises=F Damp=F
 DIIS: error= 1.72D-05 at cycle   3 NSaved=   3.
 NSaved= 3 IEnMin= 2 EnMin= -1553.88842833043     IErMin= 2 ErrMin= 1.13D-05
 ErrMax= 1.72D-05  0.00D+00 EMaxC= 1.00D-01 BMatC= 2.91D-07 BMatP= 1.45D-07
 IDIUse=1 WtCom= 1.00D+00 WtEn= 0.00D+00
 Coeff-Com: -0.696D-03 0.588D+00 0.413D+00
 Coeff:     -0.696D-03 0.588D+00 0.413D+00
 Gap=     0.036 Goal=   None    Shift=    0.000
 RMSDP=1.74D-06 MaxDP=8.75D-05 DE= 1.29D-07 OVMax= 2.33D-04

 Cycle  16  Pass 1  IDiag  1:
 RMSU=  7.93D-07    CP:  1.00D+00  1.01D+00  4.33D-01
 E= -1553.88842845399     Delta-E=       -0.000000252514 Rises=F Damp=F
 DIIS: error= 5.99D-06 at cycle   4 NSaved=   4.
 NSaved= 4 IEnMin= 4 EnMin= -1553.88842845399     IErMin= 4 ErrMin= 5.99D-06
 ErrMax= 5.99D-06  0.00D+00 EMaxC= 1.00D-01 BMatC= 1.54D-08 BMatP= 1.45D-07
 IDIUse=1 WtCom= 1.00D+00 WtEn= 0.00D+00
 Coeff-Com: -0.829D-02 0.375D+00 0.286D+00 0.347D+00
 Coeff:     -0.829D-02 0.375D+00 0.286D+00 0.347D+00
 Gap=     0.036 Goal=   None    Shift=    0.000
 RMSDP=3.42D-07 MaxDP=2.09D-05 DE=-2.53D-07 OVMax= 4.53D-05

 Cycle  17  Pass 1  IDiag  1:
 RMSU=  3.15D-07    CP:  1.00D+00  1.02D+00  4.71D-01  9.00D-01
 E= -1553.88842846654     Delta-E=       -0.000000012549 Rises=F Damp=F
 DIIS: error= 1.92D-06 at cycle   5 NSaved=   5.
 NSaved= 5 IEnMin= 5 EnMin= -1553.88842846654     IErMin= 5 ErrMin= 1.92D-06
 ErrMax= 1.92D-06  0.00D+00 EMaxC= 1.00D-01 BMatC= 9.76D-10 BMatP= 1.54D-08
 IDIUse=1 WtCom= 1.00D+00 WtEn= 0.00D+00
 Coeff-Com: -0.547D-02 0.200D+00 0.157D+00 0.234D+00 0.414D+00
 Coeff:     -0.547D-02 0.200D+00 0.157D+00 0.234D+00 0.414D+00
 Gap=     0.036 Goal=   None    Shift=    0.000
 RMSDP=1.48D-07 MaxDP=7.00D-06 DE=-1.25D-08 OVMax= 2.93D-05

 Cycle  18  Pass 1  IDiag  1:
 RMSU=  1.11D-07    CP:  1.00D+00  1.02D+00  4.90D-01  1.00D+00  1.04D+00
 E= -1553.88842846742     Delta-E=       -0.000000000881 Rises=F Damp=F
 DIIS: error= 6.97D-07 at cycle   6 NSaved=   6.
 NSaved= 6 IEnMin= 6 EnMin= -1553.88842846742     IErMin= 6 ErrMin= 6.97D-07
 ErrMax= 6.97D-07  0.00D+00 EMaxC= 1.00D-01 BMatC= 1.75D-10 BMatP= 9.76D-10
 IDIUse=1 WtCom= 1.00D+00 WtEn= 0.00D+00
 Coeff-Com: -0.175D-02 0.500D-01 0.416D-01 0.827D-01 0.305D+00 0.523D+00
 Coeff:     -0.175D-02 0.500D-01 0.416D-01 0.827D-01 0.305D+00 0.523D+00
 Gap=     0.036 Goal=   None    Shift=    0.000
 RMSDP=1.22D-07 MaxDP=6.02D-06 DE=-8.81D-10 OVMax= 2.99D-05

 Cycle  19  Pass 1  IDiag  1:
 RMSU=  4.32D-08    CP:  1.00D+00  1.02D+00  4.98D-01  1.12D+00  1.25D+00
                    CP:  1.04D+00
 E= -1553.88842846771     Delta-E=       -0.000000000285 Rises=F Damp=F
 DIIS: error= 1.31D-07 at cycle   7 NSaved=   7.
 NSaved= 7 IEnMin= 7 EnMin= -1553.88842846771     IErMin= 7 ErrMin= 1.31D-07
 ErrMax= 1.31D-07  0.00D+00 EMaxC= 1.00D-01 BMatC= 2.23D-11 BMatP= 1.75D-10
 IDIUse=1 WtCom= 1.00D+00 WtEn= 0.00D+00
 Coeff-Com:  0.815D-04-0.123D-01-0.809D-02 0.531D-02 0.115D+00 0.326D+00
 Coeff-Com:  0.575D+00
 Coeff:      0.815D-04-0.123D-01-0.809D-02 0.531D-02 0.115D+00 0.326D+00
 Coeff:      0.575D+00
 Gap=     0.036 Goal=   None    Shift=    0.000
 RMSDP=8.31D-08 MaxDP=4.25D-06 DE=-2.85D-10 OVMax= 2.10D-05

 Cycle  20  Pass 1  IDiag  1:
 RMSU=  1.70D-08    CP:  1.00D+00  1.02D+00  5.05D-01  1.20D+00  1.38D+00
                    CP:  1.23D+00  1.11D+00
 E= -1553.88842846778     Delta-E=       -0.000000000070 Rises=F Damp=F
 DIIS: error= 4.90D-08 at cycle   8 NSaved=   8.
 NSaved= 8 IEnMin= 8 EnMin= -1553.88842846778     IErMin= 8 ErrMin= 4.90D-08
 ErrMax= 4.90D-08  0.00D+00 EMaxC= 1.00D-01 BMatC= 3.05D-12 BMatP= 2.23D-11
 IDIUse=1 WtCom= 1.00D+00 WtEn= 0.00D+00
 Coeff-Com:  0.387D-03-0.176D-01-0.133D-01-0.109D-01 0.167D-01 0.104D+00
 Coeff-Com:  0.309D+00 0.612D+00
 Coeff:      0.387D-03-0.176D-01-0.133D-01-0.109D-01 0.167D-01 0.104D+00
 Coeff:      0.309D+00 0.612D+00
 Gap=     0.036 Goal=   None    Shift=    0.000
 RMSDP=4.78D-08 MaxDP=2.46D-06 DE=-6.96D-11 OVMax= 1.22D-05

 Cycle  21  Pass 1  IDiag  1:
 RMSU=  6.72D-09    CP:  1.00D+00  1.02D+00  5.09D-01  1.24D+00  1.46D+00
                    CP:  1.33D+00  1.31D+00  1.15D+00
 E= -1553.88842846778     Delta-E=        0.000000000000 Rises=F Damp=F
 DIIS: error= 2.88D-08 at cycle   9 NSaved=   9.
 NSaved= 9 IEnMin= 8 EnMin= -1553.88842846778     IErMin= 9 ErrMin= 2.88D-08
 ErrMax= 2.88D-08  0.00D+00 EMaxC= 1.00D-01 BMatC= 5.41D-13 BMatP= 3.05D-12
 IDIUse=1 WtCom= 1.00D+00 WtEn= 0.00D+00
 Coeff-Com:  0.179D-03-0.593D-02-0.477D-02-0.547D-02-0.143D-01-0.192D-01
 Coeff-Com: -0.401D-02 0.280D+00 0.774D+00
 Coeff:      0.179D-03-0.593D-02-0.477D-02-0.547D-02-0.143D-01-0.192D-01
 Coeff:     -0.401D-02 0.280D+00 0.774D+00
 Gap=     0.036 Goal=   None    Shift=    0.000
 RMSDP=3.14D-08 MaxDP=1.62D-06 DE= 0.00D+00 OVMax= 8.02D-06

 Cycle  22  Pass 1  IDiag  1:
 RMSU=  2.78D-09    CP:  1.00D+00  1.02D+00  5.11D-01  1.27D+00  1.50D+00
                    CP:  1.39D+00  1.42D+00  1.40D+00  1.08D+00
 E= -1553.88842846780     Delta-E=       -0.000000000021 Rises=F Damp=F
 DIIS: error= 1.70D-08 at cycle  10 NSaved=  10.
 NSaved=10 IEnMin=10 EnMin= -1553.88842846780     IErMin=10 ErrMin= 1.70D-08
 ErrMax= 1.70D-08  0.00D+00 EMaxC= 1.00D-01 BMatC= 2.53D-13 BMatP= 5.41D-13
 IDIUse=1 WtCom= 1.00D+00 WtEn= 0.00D+00
 Coeff-Com:  0.182D-04 0.427D-03 0.165D-03-0.469D-03-0.102D-01-0.328D-01
 Coeff-Com: -0.791D-01 0.246D-01 0.515D+00 0.582D+00
 Coeff:      0.182D-04 0.427D-03 0.165D-03-0.469D-03-0.102D-01-0.328D-01
 Coeff:     -0.791D-01 0.246D-01 0.515D+00 0.582D+00
 Gap=     0.036 Goal=   None    Shift=    0.000
 RMSDP=1.21D-08 MaxDP=6.20D-07 DE=-2.14D-11 OVMax= 3.07D-06

 Cycle  23  Pass 1  IDiag  1:
 RMSU=  1.07D-09    CP:  1.00D+00  1.02D+00  5.12D-01  1.28D+00  1.52D+00
                    CP:  1.42D+00  1.48D+00  1.48D+00  1.22D+00  6.73D-01
 E= -1553.88842846780     Delta-E=       -0.000000000002 Rises=F Damp=F
 DIIS: error= 9.85D-09 at cycle  11 NSaved=  11.
 NSaved=11 IEnMin=11 EnMin= -1553.88842846780     IErMin=11 ErrMin= 9.85D-09
 ErrMax= 9.85D-09  0.00D+00 EMaxC= 1.00D-01 BMatC= 3.57D-14 BMatP= 2.53D-13
 IDIUse=1 WtCom= 1.00D+00 WtEn= 0.00D+00
 Coeff-Com:  0.646D-06 0.683D-03 0.443D-03 0.112D-04-0.502D-02-0.190D-01
 Coeff-Com: -0.494D-01-0.110D-01 0.247D+00 0.379D+00 0.457D+00
 Coeff:      0.646D-06 0.683D-03 0.443D-03 0.112D-04-0.502D-02-0.190D-01
 Coeff:     -0.494D-01-0.110D-01 0.247D+00 0.379D+00 0.457D+00
 Gap=     0.036 Goal=   None    Shift=    0.000
 RMSDP=2.32D-09 MaxDP=1.17D-07 DE=-2.27D-12 OVMax= 5.78D-07

 SCF Done:  E(RB3LYP) =  -1553.88842847     A.U. after   23 cycles
            NFock= 23  Conv=0.23D-08     -V/T= 2.0074
 KE= 1.542545570784D+03 PE=-8.020905903351D+03 EE= 2.739036677460D+03
 Leave Link  502 at Tue Jul 21 23:42:18 2015, MaxMem=    33554432 cpu:      1039.3
 (Enter /home/case/qchem/g09revD01/g09/l601.exe)
 Copying SCF densities to generalized density rwf, IOpCl= 0 IROHF=0.

 **********************************************************************

            Population analysis using the SCF density.

 **********************************************************************

 Orbital symmetries:
       Occupied  (A) (A) (A) (A) (A) (A) (A) (A) (A) (A) (A) (A)
                 (A) (A) (A) (A) (A) (A) (A) (A) (A) (A) (A) (A)
                 (A) (A) (A) (A) (A) (A) (A) (A) (A) (A) (A) (A)
                 (A) (A) (A) (A) (A) (A) (A) (A) (A) (A) (A) (A)
                 (A) (A) (A) (A) (A) (A) (A) (A) (A) (A) (A) (A)
                 (A) (A) (A) (A) (A) (A) (A) (A) (A) (A) (A) (A)
                 (A) (A) (A) (A) (A) (A) (A) (A) (A) (A) (A) (A)
                 (A) (A) (A) (A) (A)
       Virtual   (A) (A) (A) (A) (A) (A) (A) (A) (A) (A) (A) (A)
                 (A) (A) (A) (A) (A) (A) (A) (A) (A) (A) (A) (A)
                 (A) (A) (A) (A) (A) (A) (A) (A) (A) (A) (A) (A)
                 (A) (A) (A) (A) (A) (A) (A) (A) (A) (A) (A) (A)
                 (A) (A) (A) (A) (A) (A) (A) (A) (A) (A) (A) (A)
                 (A) (A) (A) (A) (A) (A) (A) (A) (A) (A) (A) (A)
                 (A) (A) (A) (A) (A) (A) (A) (A) (A) (A) (A) (A)
                 (A) (A) (A) (A) (A) (A) (A) (A) (A) (A) (A) (A)
                 (A) (A) (A) (A) (A) (A) (A) (A) (A) (A) (A) (A)
                 (A) (A) (A) (A) (A) (A) (A) (A) (A) (A) (A) (A)
                 (A) (A) (A) (A) (A) (A) (A) (A) (A) (A) (A) (A)
                 (A) (A) (A) (A) (A) (A) (A) (A) (A) (A) (A) (A)
                 (A) (A) (A) (A) (A) (A) (A) (A) (A) (A) (A) (A)
                 (A) (A) (A) (A) (A) (A) (A) (A) (A) (A) (A) (A)
                 (A) (A) (A) (A) (A) (A) (A) (A) (A) (A) (A) (A)
                 (A) (A) (A) (A) (A) (A) (A) (A) (A) (A) (A) (A)
                 (A) (A) (A) (A) (A) (A) (A) (A) (A) (A) (A) (A)
                 (A) (A) (A) (A) (A) (A) (A) (A) (A) (A) (A) (A)
                 (A) (A) (A) (A) (A) (A) (A) (A) (A) (A) (A) (A)
                 (A) (A) (A) (A) (A) (A) (A) (A) (A) (A) (A) (A)
                 (A) (A) (A) (A) (A) (A) (A) (A) (A) (A) (A) (A)
                 (A) (A) (A) (A) (A) (A) (A) (A) (A) (A) (A) (A)
                 (A) (A) (A) (A) (A) (A) (A) (A) (A) (A) (A) (A)
                 (A) (A) (A) (A) (A) (A)
 The electronic state is 1-A.
 Alpha  occ. eigenvalues --  -77.23867 -24.70032 -19.23343 -19.19658 -19.17184
 Alpha  occ. eigenvalues --  -19.16912 -19.16376 -19.10003 -14.39652 -14.39258
 Alpha  occ. eigenvalues --  -14.38865 -14.33527 -14.31446 -10.32753 -10.31525
 Alpha  occ. eigenvalues --  -10.29400 -10.29134 -10.28867 -10.28501 -10.27390
 Alpha  occ. eigenvalues --  -10.25593 -10.23974 -10.19629  -6.69564  -4.86027
 Alpha  occ. eigenvalues --   -4.85769  -4.85544  -1.19926  -1.11698  -1.08855
 Alpha  occ. eigenvalues --   -1.05549  -1.04662  -1.03017  -1.01643  -1.00183
 Alpha  occ. eigenvalues --   -0.98352  -0.92388  -0.90729  -0.88641  -0.81984
 Alpha  occ. eigenvalues --   -0.80120  -0.75982  -0.72823  -0.67697  -0.66632
 Alpha  occ. eigenvalues --   -0.65856  -0.64078  -0.60714  -0.60555  -0.59152
 Alpha  occ. eigenvalues --   -0.56213  -0.55359  -0.55061  -0.53949  -0.52747
 Alpha  occ. eigenvalues --   -0.52300  -0.50984  -0.50071  -0.49961  -0.49317
 Alpha  occ. eigenvalues --   -0.47583  -0.47009  -0.46224  -0.46019  -0.44654
 Alpha  occ. eigenvalues --   -0.42899  -0.42293  -0.42062  -0.41746  -0.40151
 Alpha  occ. eigenvalues --   -0.39936  -0.39096  -0.38568  -0.38081  -0.36405
 Alpha  occ. eigenvalues --   -0.36358  -0.35492  -0.33637  -0.32409  -0.32298
 Alpha  occ. eigenvalues --   -0.31176  -0.30588  -0.30210  -0.28862  -0.28168
 Alpha  occ. eigenvalues --   -0.26519  -0.26075  -0.24430  -0.20433
 Alpha virt. eigenvalues --   -0.16846  -0.00386   0.00192   0.00708   0.03833
 Alpha virt. eigenvalues --    0.04710   0.05657   0.06742   0.07278   0.08154
 Alpha virt. eigenvalues --    0.09041   0.09773   0.10270   0.10964   0.11633
 Alpha virt. eigenvalues --    0.12108   0.12359   0.13763   0.15390   0.16564
 Alpha virt. eigenvalues --    0.16855   0.17290   0.17343   0.18503   0.20647
 Alpha virt. eigenvalues --    0.21133   0.22363   0.22694   0.23975   0.24790
 Alpha virt. eigenvalues --    0.25735   0.26942   0.28006   0.28822   0.30192
 Alpha virt. eigenvalues --    0.32135   0.33396   0.34483   0.35981   0.37289
 Alpha virt. eigenvalues --    0.38611   0.39822   0.41141   0.44075   0.46838
 Alpha virt. eigenvalues --    0.47376   0.48979   0.49076   0.51644   0.52196
 Alpha virt. eigenvalues --    0.52633   0.52981   0.53794   0.54567   0.54882
 Alpha virt. eigenvalues --    0.56410   0.58062   0.58529   0.60068   0.60799
 Alpha virt. eigenvalues --    0.61275   0.62296   0.62954   0.63601   0.64080
 Alpha virt. eigenvalues --    0.65538   0.66504   0.67626   0.68413   0.69311
 Alpha virt. eigenvalues --    0.69736   0.70291   0.70495   0.71187   0.72191
 Alpha virt. eigenvalues --    0.75507   0.76726   0.77630   0.78486   0.78861
 Alpha virt. eigenvalues --    0.80271   0.80660   0.81116   0.81942   0.82797
 Alpha virt. eigenvalues --    0.83603   0.83690   0.84511   0.85125   0.85947
 Alpha virt. eigenvalues --    0.86471   0.86608   0.87319   0.87668   0.88353
 Alpha virt. eigenvalues --    0.89237   0.90717   0.91699   0.93050   0.93619
 Alpha virt. eigenvalues --    0.95210   0.96787   0.97055   0.98290   0.98500
 Alpha virt. eigenvalues --    0.99351   1.01110   1.02884   1.04112   1.04142
 Alpha virt. eigenvalues --    1.04927   1.05552   1.06049   1.06713   1.08887
 Alpha virt. eigenvalues --    1.09476   1.10230   1.11941   1.13446   1.14383
 Alpha virt. eigenvalues --    1.15828   1.18517   1.20259   1.21045   1.23618
 Alpha virt. eigenvalues --    1.25231   1.25512   1.26801   1.27769   1.30221
 Alpha virt. eigenvalues --    1.31696   1.32128   1.33926   1.34360   1.35079
 Alpha virt. eigenvalues --    1.36084   1.36414   1.37428   1.37726   1.39443
 Alpha virt. eigenvalues --    1.40340   1.40959   1.41369   1.43816   1.45559
 Alpha virt. eigenvalues --    1.48307   1.50443   1.50874   1.53515   1.54358
 Alpha virt. eigenvalues --    1.56470   1.57524   1.59653   1.60982   1.62095
 Alpha virt. eigenvalues --    1.63693   1.65620   1.68073   1.69041   1.70742
 Alpha virt. eigenvalues --    1.72536   1.72906   1.73287   1.75081   1.76882
 Alpha virt. eigenvalues --    1.77247   1.78252   1.78478   1.79475   1.79960
 Alpha virt. eigenvalues --    1.80337   1.80563   1.82169   1.82875   1.83398
 Alpha virt. eigenvalues --    1.83619   1.84342   1.86025   1.86499   1.88210
 Alpha virt. eigenvalues --    1.88715   1.90840   1.91125   1.91211   1.93821
 Alpha virt. eigenvalues --    1.94687   1.95024   1.97471   1.99468   2.00397
 Alpha virt. eigenvalues --    2.01290   2.02402   2.03420   2.04778   2.06586
 Alpha virt. eigenvalues --    2.07231   2.08854   2.09884   2.10830   2.12930
 Alpha virt. eigenvalues --    2.15093   2.16360   2.17109   2.17615   2.17988
 Alpha virt. eigenvalues --    2.21767   2.22963   2.24264   2.26230   2.26936
 Alpha virt. eigenvalues --    2.27826   2.29176   2.30388   2.31202   2.32970
 Alpha virt. eigenvalues --    2.35081   2.37314   2.37416   2.39057   2.40529
 Alpha virt. eigenvalues --    2.43271   2.43852   2.46413   2.47737   2.50092
 Alpha virt. eigenvalues --    2.50736   2.52953   2.53408   2.53839   2.57006
 Alpha virt. eigenvalues --    2.59517   2.60433   2.61158   2.63699   2.69125
 Alpha virt. eigenvalues --    2.69577   2.70801   2.71239   2.72911   2.73882
 Alpha virt. eigenvalues --    2.74386   2.76272   2.76355   2.78772   2.81529
 Alpha virt. eigenvalues --    2.83211   2.84041   2.86595   2.90054   2.92288
 Alpha virt. eigenvalues --    2.96669   2.99184   3.02463   3.02868   3.10403
 Alpha virt. eigenvalues --    3.12767   3.21932   3.33419   3.41807   3.47154
 Alpha virt. eigenvalues --    3.70176   3.71603   3.78672   3.81737   3.82695
 Alpha virt. eigenvalues --    3.95566   4.02429   4.08879   4.12699   4.16249
 Alpha virt. eigenvalues --    4.20588   4.26696   4.31220   4.35955   4.37489
 Alpha virt. eigenvalues --    4.44335   4.48922   4.54959   4.62893   4.65904
 Alpha virt. eigenvalues --    4.73078   4.84427
          Condensed to atoms (all electrons):
               1          2          3          4          5          6
     1  P   12.759626   0.489259   0.500968   0.237692  -0.000577  -0.005153
     2  O    0.489259   8.044754  -0.041852  -0.047652  -0.002837  -0.000247
     3  O    0.500968  -0.041852   7.990735  -0.029137   0.000231   0.000031
     4  O    0.237692  -0.047652  -0.029137   8.199022   0.201594  -0.032943
     5  C   -0.000577  -0.002837   0.000231   0.201594   4.932435   0.367524
     6  H   -0.005153  -0.000247   0.000031  -0.032943   0.367524   0.564862
     7  H   -0.001639   0.006140  -0.000044  -0.033623   0.350952  -0.041076
     8  C    0.000011  -0.000053  -0.000024  -0.042707   0.337470  -0.032839
     9  H    0.000182   0.000001   0.000000   0.002245  -0.043650  -0.001244
    10  O   -0.000316   0.000000   0.000000   0.001903  -0.044674  -0.001673
    11  C    0.000018   0.000000   0.000000   0.000202   0.003981  -0.000166
    12  H   -0.000002   0.000000   0.000000   0.000003  -0.000220  -0.000019
    13  N    0.000009   0.000000   0.000001  -0.000152   0.000286   0.000005
    14  C    0.000122   0.000001  -0.000180  -0.002487   0.000118   0.000058
    15  H    0.001351  -0.000007   0.000918   0.008896  -0.001143  -0.000125
    16  N    0.000010   0.000000  -0.000009   0.000040  -0.000005   0.000000
    17  C   -0.000001   0.000000   0.000000  -0.000003   0.000001   0.000000
    18  C    0.000000   0.000000   0.000000   0.000000   0.000000   0.000000
    19  O    0.000000   0.000000   0.000000   0.000000   0.000000   0.000000
    20  N    0.000000   0.000000   0.000000   0.000000   0.000000   0.000000
    21  H    0.000000   0.000000   0.000000   0.000000   0.000000   0.000000
    22  C    0.000000   0.000000   0.000000   0.000000   0.000000   0.000000
    23  N    0.000000   0.000000   0.000000   0.000000   0.000000   0.000000
    24  H    0.000000   0.000000   0.000000   0.000000   0.000000   0.000000
    25  H    0.000000   0.000000   0.000000   0.000000   0.000000   0.000000
    26  N    0.000000   0.000000   0.000000   0.000000   0.000000   0.000000
    27  C   -0.000002   0.000000   0.000000  -0.000001   0.000005   0.000000
    28  C    0.000320  -0.000030  -0.000004   0.001007  -0.030223   0.005893
    29  H    0.000411   0.000003  -0.000002   0.003017  -0.005692   0.000116
    30  C   -0.000073   0.000000   0.000000  -0.000311   0.006779  -0.000086
    31  H    0.000003   0.000000   0.000000  -0.000007  -0.000167   0.000004
    32  F    0.000000   0.000000   0.000000   0.000000   0.000148   0.000000
    33  O   -0.000069   0.000000   0.000000  -0.000133   0.002179  -0.000052
    34  H    0.000002   0.000000   0.000000  -0.000007  -0.000216   0.000005
               7          8          9         10         11         12
     1  P   -0.001639   0.000011   0.000182  -0.000316   0.000018  -0.000002
     2  O    0.006140  -0.000053   0.000001   0.000000   0.000000   0.000000
     3  O   -0.000044  -0.000024   0.000000   0.000000   0.000000   0.000000
     4  O   -0.033623  -0.042707   0.002245   0.001903   0.000202   0.000003
     5  C    0.350952   0.337470  -0.043650  -0.044674   0.003981  -0.000220
     6  H   -0.041076  -0.032839  -0.001244  -0.001673  -0.000166  -0.000019
     7  H    0.545410  -0.028547   0.003102   0.003004  -0.000155   0.000007
     8  C   -0.028547   4.966768   0.363323   0.202180  -0.060544   0.001385
     9  H    0.003102   0.363323   0.555151  -0.037748  -0.000832   0.000517
    10  O    0.003004   0.202180  -0.037748   8.299135   0.242143  -0.034613
    11  C   -0.000155  -0.060544  -0.000832   0.242143   4.887371   0.378956
    12  H    0.000007   0.001385   0.000517  -0.034613   0.378956   0.548984
    13  N   -0.000006   0.005374  -0.000304  -0.052573   0.136239  -0.058952
    14  C   -0.000007  -0.000697   0.000076   0.007320  -0.022659   0.002389
    15  H    0.000089  -0.001464   0.000061   0.006671  -0.001230   0.000035
    16  N    0.000000  -0.000022   0.000000   0.000334   0.003995  -0.000131
    17  C    0.000000   0.000026  -0.000001  -0.000277   0.009207  -0.000388
    18  C    0.000000   0.000000   0.000000   0.000000   0.000048   0.000005
    19  O    0.000000   0.000000   0.000000   0.000000   0.000000   0.000000
    20  N    0.000000   0.000000   0.000000   0.000000   0.000016   0.000006
    21  H    0.000000   0.000000   0.000000   0.000000   0.000000   0.000000
    22  C    0.000000   0.000000   0.000000   0.000000  -0.000249   0.000089
    23  N    0.000000   0.000000   0.000000   0.000000  -0.000006  -0.000012
    24  H    0.000000   0.000000   0.000000   0.000000   0.000000   0.000000
    25  H    0.000000   0.000000   0.000000   0.000000   0.000000   0.000012
    26  N    0.000000  -0.000006   0.000000   0.000054  -0.001853   0.006515
    27  C    0.000000  -0.000061   0.000010   0.001928  -0.036177  -0.001041
    28  C   -0.006323   0.271044  -0.034994  -0.035395  -0.043460   0.005798
    29  H    0.000255  -0.024650   0.003717   0.001457   0.003798  -0.000102
    30  C    0.000052  -0.061650  -0.007551  -0.036780   0.286644  -0.043020
    31  H   -0.000007   0.011497   0.000189   0.002371  -0.032486   0.000632
    32  F   -0.000002   0.006954   0.004389  -0.000310  -0.015550   0.001616
    33  O    0.002786  -0.038024   0.002806   0.001178   0.003347  -0.000061
    34  H   -0.000091   0.006148  -0.000061  -0.000097  -0.000009  -0.000002
              13         14         15         16         17         18
     1  P    0.000009   0.000122   0.001351   0.000010  -0.000001   0.000000
     2  O    0.000000   0.000001  -0.000007   0.000000   0.000000   0.000000
     3  O    0.000001  -0.000180   0.000918  -0.000009   0.000000   0.000000
     4  O   -0.000152  -0.002487   0.008896   0.000040  -0.000003   0.000000
     5  C    0.000286   0.000118  -0.001143  -0.000005   0.000001   0.000000
     6  H    0.000005   0.000058  -0.000125   0.000000   0.000000   0.000000
     7  H   -0.000006  -0.000007   0.000089   0.000000   0.000000   0.000000
     8  C    0.005374  -0.000697  -0.001464  -0.000022   0.000026   0.000000
     9  H   -0.000304   0.000076   0.000061   0.000000  -0.000001   0.000000
    10  O   -0.052573   0.007320   0.006671   0.000334  -0.000277   0.000000
    11  C    0.136239  -0.022659  -0.001230   0.003995   0.009207   0.000048
    12  H   -0.058952   0.002389   0.000035  -0.000131  -0.000388   0.000005
    13  N    7.173071   0.330509  -0.056248  -0.061433  -0.070507   0.004456
    14  C    0.330509   4.770758   0.374422   0.507777  -0.095094   0.006765
    15  H   -0.056248   0.374422   0.511165  -0.036494   0.004552  -0.000191
    16  N   -0.061433   0.507777  -0.036494   6.820966   0.384380  -0.062020
    17  C   -0.070507  -0.095094   0.004552   0.384380   5.230363   0.279352
    18  C    0.004456   0.006765  -0.000191  -0.062020   0.279352   4.460649
    19  O   -0.000046   0.000151   0.000000  -0.001320  -0.087443   0.625070
    20  N    0.000372  -0.000155   0.000003   0.003106  -0.104851   0.201962
    21  H    0.000022   0.000004   0.000000  -0.000050   0.010060  -0.004626
    22  C   -0.000307   0.000152   0.000003   0.000623  -0.011928  -0.026646
    23  N   -0.000125   0.000001   0.000000   0.000003   0.001204   0.000301
    24  H    0.000001   0.000000   0.000000   0.000000  -0.000051   0.000069
    25  H   -0.000019   0.000000   0.000000  -0.000001   0.000066   0.000048
    26  N   -0.069953   0.003616  -0.000076   0.007337  -0.055009  -0.021643
    27  C    0.287922  -0.087747   0.004802  -0.085133   0.378524  -0.044317
    28  C    0.000554   0.001647   0.000087   0.000002  -0.000085   0.000000
    29  H    0.000097   0.000481   0.000042   0.000007  -0.000030   0.000000
    30  C   -0.032030  -0.000702   0.000046  -0.000045  -0.000139   0.000005
    31  H    0.000358   0.000092  -0.000013  -0.000017  -0.000036   0.000004
    32  F    0.001646  -0.000005   0.000000   0.000000  -0.000001   0.000000
    33  O   -0.000012  -0.000001   0.000001   0.000000   0.000000   0.000000
    34  H   -0.000005   0.000000   0.000000   0.000000   0.000000   0.000000
              19         20         21         22         23         24
     1  P    0.000000   0.000000   0.000000   0.000000   0.000000   0.000000
     2  O    0.000000   0.000000   0.000000   0.000000   0.000000   0.000000
     3  O    0.000000   0.000000   0.000000   0.000000   0.000000   0.000000
     4  O    0.000000   0.000000   0.000000   0.000000   0.000000   0.000000
     5  C    0.000000   0.000000   0.000000   0.000000   0.000000   0.000000
     6  H    0.000000   0.000000   0.000000   0.000000   0.000000   0.000000
     7  H    0.000000   0.000000   0.000000   0.000000   0.000000   0.000000
     8  C    0.000000   0.000000   0.000000   0.000000   0.000000   0.000000
     9  H    0.000000   0.000000   0.000000   0.000000   0.000000   0.000000
    10  O    0.000000   0.000000   0.000000   0.000000   0.000000   0.000000
[...]
     Eigenvalues ---    0.03065   0.03761   0.04204   0.04721   0.04892
     Eigenvalues ---    0.05176   0.05257   0.05570   0.05883   0.06177
     Eigenvalues ---    0.06385   0.07145   0.07426   0.08008   0.08288
     Eigenvalues ---    0.09883   0.11174   0.12992   0.13657   0.15818
     Eigenvalues ---    0.16000   0.16000   0.16011   0.16030   0.16140
     Eigenvalues ---    0.17175   0.19337   0.21368   0.22129   0.23093
     Eigenvalues ---    0.23549   0.23671   0.24674   0.24991   0.24996
     Eigenvalues ---    0.25000   0.25000   0.25000   0.25000   0.26284
     Eigenvalues ---    0.27131   0.28998   0.29326   0.29565   0.34489
     Eigenvalues ---    0.34658   0.34818   0.34845   0.34850   0.34860
     Eigenvalues ---    0.34886   0.35992   0.36287   0.36965   0.39647
     Eigenvalues ---    0.40137   0.40209   0.41938   0.42467   0.43009
     Eigenvalues ---    0.44681   0.46004   0.46077   0.46706   0.47546
     Eigenvalues ---    0.47742   0.49745   0.50423   0.51442   0.55550
     Eigenvalues ---    0.58431   0.59675   0.61830   0.80365   0.83820
     Eigenvalues ---    0.89798
 RFO step:  Lambda=-4.81351425D-03 EMin= 3.71021640D-03
 Quartic linear search produced a step of  0.45541.
 Iteration  1 RMS(Cart)=  0.07611422 RMS(Int)=  0.00419628
 Iteration  2 RMS(Cart)=  0.00537052 RMS(Int)=  0.00070855
 Iteration  3 RMS(Cart)=  0.00006063 RMS(Int)=  0.00070737
 Iteration  4 RMS(Cart)=  0.00000011 RMS(Int)=  0.00070737
 ITry= 1 IFail=0 DXMaxC= 4.93D-01 DCOld= 1.00D+10 DXMaxT= 8.49D-01 DXLimC= 3.00D+00 Rises=F
 Variable       Old X    -DE/DX   Delta X   Delta X   Delta X     New X
                                 (Linear)    (Quad)   (Total)
    R1        2.80772  -0.01417  -0.01844  -0.01477  -0.03321   2.77452
    R2        2.78896  -0.00787  -0.01425  -0.00634  -0.02058   2.76837
    R3        3.05710  -0.00958  -0.01456  -0.01893  -0.03349   3.02361
    R4        2.73744   0.00238  -0.00229   0.00975   0.00746   2.74490
    R5        2.06791  -0.00020  -0.00314   0.00090  -0.00224   2.06567
    R6        2.06892  -0.00048  -0.00341  -0.00013  -0.00354   2.06538
    R7        2.85557   0.00088   0.00091   0.00359   0.00450   2.86006
    R8        2.07327   0.00090  -0.00065   0.00407   0.00342   2.07669
    R9        2.73975  -0.00501  -0.00283  -0.01815  -0.02120   2.71855
   R10        2.86936   0.00428   0.01949   0.00865   0.02839   2.89775
   R11        2.67068   0.00228  -0.00626   0.01182   0.00526   2.67594
   R12        2.06753   0.00020  -0.00045   0.00110   0.00065   2.06818
   R13        2.76427  -0.00067  -0.00226  -0.00167  -0.00394   2.76034
   R14        2.90640  -0.00058   0.01547  -0.00923   0.00628   2.91268
   R15        2.63301   0.00037  -0.00371   0.00317  -0.00053   2.63248
   R16        2.59790   0.00040   0.00077   0.00078   0.00155   2.59945
   R17        2.03929  -0.00020   0.00038  -0.00099  -0.00060   2.03868
   R18        2.47235  -0.00075   0.00168  -0.00252  -0.00084   2.47151
   R19        2.60820   0.00048  -0.00506   0.00382  -0.00125   2.60696
   R20        2.72885  -0.00239  -0.00700  -0.00424  -0.01124   2.71761
   R21        2.63301  -0.00030  -0.00266   0.00047  -0.00220   2.63081
   R22        2.29977   0.00124  -0.00159   0.00260   0.00101   2.30078
   R23        2.71841   0.00186   0.00079   0.00589   0.00668   2.72509
   R24        1.91772  -0.00094  -0.00494  -0.00015  -0.00509   1.91263
   R25        2.59565  -0.00031  -0.00983   0.00423  -0.00560   2.59005
   R26        2.57860  -0.00196  -0.00861  -0.00010  -0.00872   2.56989
   R27        2.48314   0.00066   0.00469  -0.00072   0.00397   2.48711
   R28        1.90210  -0.00046   0.00285  -0.00291  -0.00006   1.90204
   R29        1.90349   0.00039  -0.00190   0.00215   0.00025   1.90374
   R30        2.56962  -0.00017  -0.00336   0.00113  -0.00222   2.56740
   R31        2.06771   0.00079  -0.00568   0.00630   0.00062   2.06832
   R32        2.92073  -0.00238  -0.01472  -0.00427  -0.01879   2.90194
   R33        2.75149  -0.02172  -0.03284  -0.05510  -0.08794   2.66355
   R34        2.06306   0.00059  -0.00133   0.00311   0.00178   2.06484
   R35        2.61852   0.00021   0.00328  -0.00120   0.00207   2.62059
   R36        1.83443  -0.00051   0.00014  -0.00126  -0.00113   1.83331
    A1        2.34521  -0.00340  -0.00921  -0.01039  -0.02371   2.32150
    A2        1.97804   0.00296   0.02426   0.00615   0.02626   2.00430
    A3        1.95508   0.00083  -0.00164   0.00798   0.00219   1.95727
    A4        2.11804  -0.00327  -0.01107  -0.01215  -0.02322   2.09482
    A5        1.90819  -0.00054  -0.01000  -0.00060  -0.01060   1.89759
    A6        1.91070  -0.00009  -0.00110   0.00138   0.00018   1.91088
    A7        1.90310   0.00039   0.00661  -0.00085   0.00574   1.90883
    A8        1.91695  -0.00017   0.00035  -0.00302  -0.00272   1.91423
    A9        1.91234   0.00020   0.00104   0.00124   0.00231   1.91465
   A10        1.91246   0.00021   0.00323   0.00186   0.00504   1.91750
   A11        1.88060  -0.00099  -0.00828  -0.00639  -0.01505   1.86555
   A12        1.89884   0.00186  -0.00397   0.02282   0.01910   1.91794
   A13        2.05192  -0.00046  -0.00850  -0.00284  -0.01194   2.03999
   A14        1.90299   0.00048   0.00485   0.00817   0.01286   1.91585
   A15        1.87848   0.00041  -0.00771   0.00619  -0.00203   1.87645
   A16        1.84732  -0.00122   0.02564  -0.02709  -0.00110   1.84621
   A17        1.92808   0.00187  -0.01846   0.01817  -0.00088   1.92720
   A18        1.91477   0.00081   0.00292   0.01396   0.01683   1.93159
   A19        1.90771   0.00124  -0.00860   0.01875   0.01025   1.91795
   A20        1.86716  -0.00117   0.00556  -0.01022  -0.00475   1.86241
   A21        1.88679  -0.00026   0.00286  -0.00568  -0.00301   1.88378
   A22        1.92308  -0.00026  -0.00578  -0.01063  -0.01637   1.90671
   A23        1.96417  -0.00031   0.00294  -0.00517  -0.00225   1.96192
   A24        2.26726  -0.00059  -0.00022  -0.00326  -0.00349   2.26378
   A25        2.16718   0.00010   0.00484  -0.00227   0.00256   2.16974
   A26        1.84865   0.00048  -0.00465   0.00550   0.00085   1.84951
   A27        2.11575   0.00019  -0.00307   0.00328   0.00019   2.11594
   A28        1.96993  -0.00020   0.00108  -0.00200  -0.00092   1.96901
   A29        2.19750   0.00001   0.00199  -0.00129   0.00068   2.19818
   A30        1.83065  -0.00006   0.00203  -0.00187   0.00016   1.83080
   A31        2.28052  -0.00048   0.00080  -0.00246  -0.00166   2.27886
   A32        1.93235   0.00055  -0.00364   0.00529   0.00165   1.93400
   A33        2.07032  -0.00007   0.00284  -0.00283   0.00001   2.07033
   A34        2.29322   0.00033   0.00432  -0.00020   0.00412   2.29735
   A35        1.91055  -0.00010   0.00103  -0.00159  -0.00057   1.90998
   A36        2.07941  -0.00023  -0.00535   0.00179  -0.00355   2.07586
   A37        1.97853  -0.00094  -0.00130  -0.00738  -0.00868   1.96985
   A38        2.20885   0.00033  -0.00284   0.00436   0.00152   2.21037
   A39        2.09580   0.00060   0.00414   0.00302   0.00717   2.10297
   A40        2.04402   0.00176  -0.01362   0.01718   0.00356   2.04758
   A41        2.15507  -0.00078   0.00274  -0.00519  -0.00246   2.15261
   A42        2.08409  -0.00098   0.01088  -0.01199  -0.00111   2.08298
   A43        2.15209  -0.00067  -0.00095  -0.00554  -0.00653   2.14555
   A44        2.05283   0.00035  -0.00617   0.00664   0.00042   2.05325
   A45        2.07770   0.00031   0.00701  -0.00154   0.00543   2.08313
   A46        1.96338  -0.00039  -0.00122  -0.00124  -0.00245   1.96093
   A47        1.84319  -0.00077   0.00517  -0.00689  -0.00173   1.84146
   A48        2.18180  -0.00024  -0.00263   0.00043  -0.00220   2.17960
   A49        2.25819   0.00101  -0.00254   0.00647   0.00393   2.26212
   A50        1.98495  -0.00235  -0.03018  -0.02555  -0.05661   1.92834
   A51        1.77264   0.00039  -0.02114   0.00908  -0.01284   1.75980
   A52        1.87175   0.00031   0.02609  -0.00443   0.02184   1.89359
   A53        1.93455  -0.00026   0.00323  -0.01299  -0.01330   1.92125
   A54        1.91366   0.00110   0.01055   0.01677   0.02816   1.94181
   A55        1.98350   0.00067   0.01086   0.01581   0.02685   2.01035
   A56        1.79029   0.00048   0.01196  -0.00616   0.00609   1.79638
   A57        1.99143  -0.00197  -0.02213  -0.01170  -0.03418   1.95725
   A58        1.89455  -0.00005   0.00243  -0.00682  -0.00456   1.88999
   A59        1.98859   0.00175   0.00626   0.02456   0.03096   2.01954
   A60        1.89658  -0.00046   0.00321  -0.00410  -0.00100   1.89558
   A61        1.89747   0.00023  -0.00022   0.00283   0.00199   1.89946
   A62        1.87286   0.00108  -0.00286   0.01106   0.00820   1.88105
    D1        3.02560   0.00495   0.09077   0.04528   0.13386  -3.12372
    D2        0.76315  -0.00660  -0.07203  -0.15595  -0.23061   0.53254
    D3       -2.46866  -0.00317  -0.00667  -0.12196  -0.12599  -2.59465
    D4        1.07277   0.00011   0.00370   0.01951   0.02328   1.09605
    D5       -1.02791   0.00071   0.01026   0.02273   0.03294  -0.99497
    D6       -3.11999   0.00027   0.00304   0.02015   0.02316  -3.09683
    D7        3.03587  -0.00029  -0.00145  -0.00127  -0.00252   3.03335
    D8       -1.18647   0.00074  -0.00256   0.01731   0.01467  -1.17180
    D9        0.91139   0.00029   0.02241  -0.00230   0.02006   0.93145
   D10       -1.15945  -0.00059  -0.00900  -0.00177  -0.01059  -1.17005
   D11        0.90139   0.00044  -0.01012   0.01681   0.00660   0.90798
   D12        2.99925  -0.00001   0.01486  -0.00280   0.01199   3.01124
   D13        0.94488  -0.00054  -0.00593  -0.00356  -0.00934   0.93554
   D14        3.00572   0.00049  -0.00705   0.01502   0.00785   3.01357
   D15       -1.17961   0.00004   0.01792  -0.00459   0.01324  -1.16636
   D16        2.54940  -0.00054   0.00080   0.02514   0.02626   2.57566
   D17       -1.68715  -0.00041  -0.00861   0.03492   0.02653  -1.66062
   D18        0.32916  -0.00034  -0.00264   0.03200   0.02979   0.35896
   D19       -0.61727  -0.00193  -0.03321  -0.05715  -0.08902  -0.70629
   D20       -2.69631  -0.00074  -0.00582  -0.03501  -0.04152  -2.73783
   D21        1.50149  -0.00181  -0.01937  -0.05526  -0.07475   1.42674
   D22       -2.74285  -0.00063  -0.00910  -0.05170  -0.05956  -2.80241
   D23        1.46130   0.00056   0.01829  -0.02956  -0.01206   1.44924
   D24       -0.62409  -0.00051   0.00474  -0.04981  -0.04529  -0.66938
   D25        1.50737  -0.00077  -0.02367  -0.05061  -0.07287   1.43451
   D26       -0.57166   0.00042   0.00373  -0.02847  -0.02536  -0.59702
   D27       -2.65705  -0.00065  -0.00983  -0.04872  -0.05859  -2.71564
   D28        2.15004  -0.00116  -0.00091  -0.03638  -0.03749   2.11255
   D29       -2.06712  -0.00026  -0.00082  -0.02385  -0.02466  -2.09178
   D30        0.06417  -0.00062   0.00117  -0.02540  -0.02433   0.03984
   D31        0.23521  -0.00071   0.00202  -0.00123   0.00075   0.23596
   D32       -2.89023  -0.00062   0.00535   0.00096   0.00626  -2.88397
   D33        2.31861   0.00083   0.00231   0.02298   0.02528   2.34389
   D34       -0.80683   0.00092   0.00564   0.02517   0.03079  -0.77604
   D35       -1.83668   0.00012  -0.00110   0.00233   0.00130  -1.83539
   D36        1.32106   0.00022   0.00223   0.00452   0.00681   1.32787
   D37       -0.41936   0.00035  -0.00378   0.00629   0.00218  -0.41718
   D38       -2.57876  -0.00102  -0.00754  -0.01314  -0.02051  -2.59927
   D39        1.58571   0.00004   0.00624  -0.00400   0.00208   1.58779
   D40       -2.49986   0.00021  -0.00741   0.00147  -0.00617  -2.50604
   D41        1.62391  -0.00116  -0.01117  -0.01796  -0.02886   1.59505
   D42       -0.49480  -0.00010   0.00260  -0.00882  -0.00628  -0.50108
   D43        1.67613   0.00093  -0.00901   0.01965   0.01037   1.68650
   D44       -0.48328  -0.00044  -0.01277   0.00023  -0.01232  -0.49559
   D45       -2.60199   0.00062   0.00100   0.00937   0.01027  -2.59172
   D46        0.00836  -0.00002   0.00040  -0.00040  -0.00001   0.00835
   D47       -3.13233   0.00016  -0.00056   0.01011   0.00953  -3.12279
   D48        3.13605  -0.00010  -0.00243  -0.00232  -0.00473   3.13133
   D49       -0.00463   0.00008  -0.00338   0.00819   0.00482   0.00019
   D50        3.13187  -0.00011   0.00007  -0.00617  -0.00611   3.12576
   D51       -0.01327  -0.00011  -0.00142  -0.00474  -0.00617  -0.01944
   D52        0.00316  -0.00002   0.00271  -0.00437  -0.00166   0.00150
   D53        3.14121  -0.00003   0.00122  -0.00294  -0.00172   3.13949
   D54        0.00394  -0.00010   0.00246  -0.00821  -0.00574  -0.00180
   D55       -3.13669   0.00009   0.00146   0.00288   0.00434  -3.13235
   D56       -3.14108   0.00000  -0.00177   0.00237   0.00062  -3.14046
   D57       -0.00179   0.00008  -0.00063   0.00519   0.00456   0.00278
   D58       -0.00105   0.00010   0.00230   0.00241   0.00472   0.00367
   D59        3.13978   0.00012   0.00102   0.00533   0.00635  -3.13705
   D60       -3.14019   0.00001   0.00111  -0.00060   0.00052  -3.13967
   D61        0.00065   0.00003  -0.00018   0.00233   0.00215   0.00280
   D62       -0.00096  -0.00004  -0.00138  -0.00034  -0.00173  -0.00269
   D63       -3.13880  -0.00003   0.00019  -0.00183  -0.00164  -3.14044
   D64        3.13864   0.00003  -0.00040   0.00209   0.00169   3.14033
   D65        0.00080   0.00004   0.00117   0.00060   0.00177   0.00257
   D66       -3.13509  -0.00011  -0.00158  -0.00438  -0.00595  -3.14104
   D67        0.00126  -0.00007  -0.00077  -0.00339  -0.00416  -0.00290
   D68        0.00585  -0.00009  -0.00269  -0.00187  -0.00455   0.00130
   D69       -3.14098  -0.00005  -0.00188  -0.00088  -0.00276   3.13944
   D70        3.13946   0.00006   0.00007   0.00327   0.00335  -3.14038
   D71       -0.00492   0.00004   0.00091   0.00141   0.00232  -0.00260
   D72       -0.00770   0.00009   0.00091   0.00429   0.00522  -0.00248
   D73        3.13111   0.00008   0.00175   0.00243   0.00419   3.13529
   D74       -0.01993  -0.00024  -0.00186  -0.00918  -0.01104  -0.03097
   D75       -3.12491   0.00015   0.00192   0.00470   0.00662  -3.11829
   D76        3.12433  -0.00023  -0.00265  -0.00740  -0.01004   3.11429
   D77        0.01935   0.00017   0.00114   0.00648   0.00762   0.02696
   D78        0.00567   0.00003   0.00003   0.00171   0.00173   0.00741
   D79       -3.13876   0.00002   0.00082  -0.00015   0.00068  -3.13808
   D80       -3.14111  -0.00007   0.00079  -0.00453  -0.00376   3.13832
   D81       -0.00394  -0.00008  -0.00106  -0.00279  -0.00385  -0.00779
   D82        0.59146  -0.00047  -0.01012   0.01967   0.00993   0.60139
   D83        2.75276  -0.00158  -0.02564   0.01494  -0.01050   2.74226
   D84       -1.41213  -0.00046  -0.01957   0.03195   0.01260  -1.39953
   D85       -1.52316   0.00217   0.03713   0.05047   0.08777  -1.43539
   D86        0.63814   0.00106   0.02161   0.04574   0.06734   0.70548
   D87        2.75643   0.00218   0.02768   0.06275   0.09044   2.84688
   D88        2.59560   0.00041   0.01323   0.02648   0.03982   2.63542
   D89       -1.52628  -0.00070  -0.00230   0.02176   0.01939  -1.50690
   D90        0.59201   0.00042   0.00377   0.03876   0.04249   0.63450
   D91       -3.08900   0.00111   0.00560   0.01794   0.02382  -3.06517
   D92       -0.92600  -0.00089  -0.00870  -0.00594  -0.01436  -0.94037
   D93        1.24970   0.00012   0.01072   0.00166   0.01181   1.26151
         Item               Value     Threshold  Converged?
 Maximum Force            0.021717     0.000450     NO 
 RMS     Force            0.002395     0.000300     NO 
 Maximum Displacement     0.493445     0.001800     NO 
 RMS     Displacement     0.077117     0.001200     NO 
 Predicted change in Energy=-4.377376D-03
 Lowest energy point so far.  Saving SCF results.
 GradGradGradGradGradGradGradGradGradGradGradGradGradGradGradGradGradGrad

 Leave Link  103 at Wed Jul 22 00:32:07 2015, MaxMem=    33554432 cpu:         0.1
 (Enter /home/case/qchem/g09revD01/g09/l202.exe)
                          Input orientation:                          
 ---------------------------------------------------------------------
 Center     Atomic      Atomic             Coordinates (Angstroms)
 Number     Number       Type             X           Y           Z
 ---------------------------------------------------------------------
      1         15           0        2.919065   -8.262332    3.937825
      2          8           0        3.186126   -9.426072    4.792244
      3          8           0        1.697526   -7.726673    3.332003
      4          8           0        4.210167   -7.396933    3.558064
      5          6           0        5.507584   -8.039681    3.442071
      6          1           0        5.466620   -8.768525    2.628442
      7          1           0        5.747886   -8.547689    4.379475
      8          6           0        6.559919   -6.995059    3.138796
      9          1           0        7.533451   -7.503823    3.171256
     10          8           0        6.341117   -6.446358    1.827077
     11          6           0        6.737479   -5.087490    1.787526
     12          1           0        7.514080   -4.933389    1.031926
     13          7           0        5.595619   -4.246754    1.436834
     14          6           0        4.237948   -4.557218    1.406407
     15          1           0        3.882841   -5.540512    1.672669
     16          7           0        3.496353   -3.551843    1.019398
     17          6           0        4.386630   -2.525023    0.782360
     18          6           0        4.161579   -1.175856    0.338269
     19          8           0        3.139637   -0.576829    0.056927
     20          7           0        5.424547   -0.487372    0.236168
     21          1           0        5.325981    0.471229   -0.073276
     22          6           0        6.663020   -1.004642    0.513917
     23          7           0        7.733561   -0.181567    0.353023
     24          1           0        7.651172    0.764413    0.019248
     25          1           0        8.647922   -0.562822    0.535990
     26          7           0        6.855171   -2.239735    0.925991
     27          6           0        5.693112   -2.935438    1.032933
     28          6           0        6.636117   -5.792082    4.086648
     29          1           0        5.631162   -5.456893    4.361719
     30          6           0        7.308860   -4.751882    3.179133
     31          1           0        7.142561   -3.706865    3.451527
     32          9           0        8.673509   -4.997783    3.160105
     33          8           0        7.379490   -6.165693    5.224397
     34          1           0        7.362187   -5.421811    5.846907
 ---------------------------------------------------------------------
                    Distance matrix (angstroms):
                    1          2          3          4          5
     1  P    0.000000
     2  O    1.468211   0.000000
     3  O    1.464961   2.690016   0.000000
     4  O    1.600024   2.586361   2.544248   0.000000
     5  C    2.644952   3.022286   3.824478   1.452539   0.000000
     6  H    2.908736   3.211707   3.973226   2.079455   1.093107
     7  H    2.877275   2.739444   4.263412   2.088907   1.092951
     8  C    3.937035   4.475064   4.920920   2.420459   1.513480
     9  H    4.738725   5.022139   5.842390   3.347426   2.112965
    10  O    4.411740   5.255938   5.046479   2.905315   2.416953
    11  C    5.411440   6.361111   5.895068   3.854301   3.600777
    12  H    6.374972   7.283913   6.850190   4.833866   4.414055
    13  N    5.435417   6.624935   5.558474   4.042613   4.291273
    14  C    4.677114   6.022953   4.495232   3.562918   4.228884
    15  H    3.669891   5.031375   3.508317   2.666113   3.466471
    16  N    5.571282   6.988360   5.100307   4.662519   5.482253
    17  C    6.710247   8.071236   6.386636   5.609918   6.224312
    18  